 &FCI NORB=  19,NELEC=24,MS2=0,
  ORBSYM=1,1,1,1,1,1,1,1,1,1,1,1,1,1,1,1,1,1,1,
  ISYM=1,
 &END
 4.746131586152245    1    1    1    1
 0.0001029029105248945    1    1    2    1
 0.3692795358315138    1    1    2    2
 0.0008574244150915238    1    1    3    1
 1.665385597555605e-05    1    1    3    2
 0.3692392870047754    1    1    3    3
 -0.3667511766807918    1    1    4    1
 0.0003076053110861811    1    1    4    2
 0.002555065004205214    1    1    4    3
 0.892213043322113    1    1    4    4
 -0.233710111711227    1    1    5    1
 0.0002362114148275165    1    1    5    2
 0.001962902018659357    1    1    5    3
 0.2631620583014314    1    1    5    4
 0.5011938555299413    1    1    5    5
 5.977106475694046e-05    1    1    6    1
 -0.001440365841201491    1    1    6    2
 0.0001723235393450976    1    1    6    3
 -5.599372710404608e-05    1    1    6    4
 -4.667877941103016e-05    1    1    6    5
 0.3531278906657289    1    1    6    6
 -1.485109277563832e-06    1    1    7    1
 -6.364227281567721e-09    1    1    7    2
 -5.325417577896991e-08    1    1    7    3
 3.165594933880224e-07    1    1    7    4
 1.403456070215095e-06    1    1    7    5
 7.946085456289609e-10    1    1    7    6
 0.4289594551309993    1    1    7    7
 -0.1329757538880449    1    1    8    1
 -0.0007106095819146782    1    1    8    2
 -0.005916713833330894    1    1    8    3
 0.05888677710899317    1    1    8    4
 0.2071616251192238    1    1    8    5
 -3.775870957290622e-05    1    1    8    6
 6.073962001244826e-08    1    1    8    7
 0.5660079308840351    1    1    8    8
 3.978791734846949e-10    1    1    9    1
 -1.110658135282947e-06    1    1    9    2
 1.331652471989338e-07    1    1    9    3
 -3.326479079603789e-09    1    1    9    4
 -4.962518063145183e-09    1    1    9    5
 -2.738725556989882e-05    1    1    9    6
 -4.633095376879379e-05    1    1    9    7
 -6.270142460795824e-10    1    1    9    8
 0.2824967105463784    1    1    9    9
 -5.179614327542259e-05    1    1   10    1
 -0.006688200613484473    1    1   10    2
 0.0008008882278702059    1    1   10    3
 3.994759437605144e-06    1    1   10    4
 3.085416016588086e-05    1    1   10    5
 -0.1961279782309261    1    1   10    6
 2.51939600301801e-08    1    1   10    7
 9.41024199665446e-05    1    1   10    8
 5.515805609119552e-05    1    1   10    9
 0.7306468517304566    1    1   10   10
 -0.09616828584605588    1    1   11    1
 -0.0004348668117626495    1    1   11    2
 -0.003632273205687132    1    1   11    3
 0.02229541914295472    1    1   11    4
 0.1483993544915458    1    1   11    5
 1.758180027850321e-05    1    1   11    6
 0.0002606593971317475    1    1   11    7
 0.2472929791061817    1    1   11    8
 -8.437326389290623e-08    1    1   11    9
 -2.062673330905903e-05    1    1   11   10
 0.5871235333346599    1    1   11   11
 7.816807865788728e-05    1    1   12    1
 3.617414968140283e-07    1    1   12    2
 3.021248664066277e-06    1    1   12    3
 -1.385055704888395e-05    1    1   12    4
 -0.0001256916351130323    1    1   12    5
 -3.306370581837581e-09    1    1   12    6
 0.2981419257953875    1    1   12    7
 -0.0002266107402946428    1    1   12    8
 -7.877629539551449e-05    1    1   12    9
 2.582324998279262e-08    1    1   12   10
 0.0003243750053452624    1    1   12   11
 0.9629274520613957    1    1   12   12
 6.270541799162173e-05    1    1   13    1
 -0.005658612551936945    1    1   13    2
 0.000681187395107401    1    1   13    3
 -8.65542314119199e-05    1    1   13    4
 -2.180849680945025e-06    1    1   13    5
 0.08335937510812448    1    1   13    6
 -3.121514844349471e-09    1    1   13    7
 9.651371673533157e-05    1    1   13    8
 -3.858565171602386e-05    1    1   13    9
 -0.2906419700447354    1    1   13   10
 0.0002121212001018823    1    1   13   11
 -1.625369222486893e-07    1    1   13   12
 0.5715784946129923    1    1   13   13
 0.1904743898172264    1    1   14    1
 0.0008320714878204648    1    1   14    2
 0.006933577860050017    1    1   14    3
 -0.2553289030966113    1    1   14    4
 -0.07125363672175707    1    1   14    5
 6.566867863169084e-06    1    1   14    6
 7.833775363866053e-06    1    1   14    7
 0.1786141992923558    1    1   14    8
 -2.164481145965763e-09    1    1   14    9
 7.239435338685985e-05    1    1   14   10
 0.2168044288835568    1    1   14   11
 -0.0001378402936472619    1    1   14   12
 0.0002255830539493133    1    1   14   13
 0.8289909052648213    1    1   14   14
 7.053508574192597e-05    1    1   15    1
 6.235556798147137e-07    1    1   15    2
 5.197340702979797e-06    1    1   15    3
 -9.226938242667157e-05    1    1   15    4
 -1.959821279100878e-05    1    1   15    5
 2.675345287059955e-08    1    1   15    6
 -0.001908163282120052    1    1   15    7
 5.183022851608377e-05    1    1   15    8
 1.709210464466947e-05    1    1   15    9
 -1.72474036965603e-07    1    1   15   10
 -5.798210171665619e-05    1    1   15   11
 -0.1678490559888965    1    1   15   12
 2.728242091246699e-07    1    1   15   13
 0.0001854401650015196    1    1   15   14
 0.3308752914487869    1    1   15   15
 -0.0465880271394481    1    1   16    1
 -0.0009289493263062111    1    1   16    2
 -0.007732163712952355    1    1   16    3
 0.06361044683877926    1    1   16    4
 -0.0005959684425293219    1    1   16    5
 -7.64048680402217e-06    1    1   16    6
 -4.587248298645874e-07    1    1   16    7
 -0.01906345455605719    1    1   16    8
 2.94573960103045e-08    1    1   16    9
 6.593167840004185e-05    1    1   16   10
 -0.07784667797020756    1    1   16   11
 5.188021278003385e-06    1    1   16   12
 -0.0001499339081619268    1    1   16   13
 -0.1410040864859064    1    1   16   14
 -2.237088741053467e-05    1    1   16   15
 0.2978453656752479    1    1   16   16
 -0.0001131918307525509    1    1   17    1
 0.0003224478042394645    1    1   17    2
 -4.529007317509413e-05    1    1   17    3
 0.0001491211841908367    1    1   17    4
 3.944996376824446e-05    1    1   17    5
 0.01472853012294667    1    1   17    6
 -5.052608328254271e-09    1    1   17    7
 -7.343907191416366e-05    1    1   17    8
 -2.87462049489845e-05    1    1   17    9
 -0.1558678457618828    1    1   17   10
 -8.101296914306928e-05    1    1   17   11
 2.048265355025433e-07    1    1   17   12
 0.1545354105712832    1    1   17   13
 -0.0002925478561341104    1    1   17   14
 -2.745452703720175e-08    1    1   17   15
 1.033660086512816e-05    1    1   17   16
 0.3692664964713902    1    1   17   17
 8.281582370402092e-05    1    1   18    1
 0.01067038510467026    1    1   18    2
 -0.001277714271761151    1    1   18    3
 -0.0001070768876070394    1    1   18    4
 -3.806466535841027e-05    1    1   18    5
 -0.04498777837883843    1    1   18    6
 6.325258998865491e-09    1    1   18    7
 5.203834827527745e-05    1    1   18    8
 1.135437638817918e-05    1    1   18    9
 0.143237684752543    1    1   18   10
 4.129724395554417e-05    1    1   18   11
 -4.887419968995638e-08    1    1   18   12
 -0.1522218309047659    1    1   18   13
 0.0001699255718917497    1    1   18   14
 -9.605271932694448e-08    1    1   18   15
 1.687277226180769e-05    1    1   18   16
 -0.1407039159173597    1    1   18   17
 0.4448104229364055    1    1   18   18
 -4.714979470373016e-09    1    1   19    1
 4.034311026835833e-07    1    1   19    2
 -4.801531381976205e-08    1    1   19    3
 5.266902318684479e-09    1    1   19    4
 4.98069152241043e-09    1    1   19    5
 -8.473144058147516e-07    1    1   19    6
 2.407976525377331e-06    1    1   19    7
 -5.104341114711697e-09    1    1   19    8
 0.06139295263140888    1    1   19    9
 -2.325117656585326e-05    1    1   19   10
 2.936987480604489e-08    1    1   19   11
 2.850028463528571e-05    1    1   19   12
 1.497381018934136e-05    1    1   19   13
 -7.539243983452348e-09    1    1   19   14
 -1.797148956643457e-05    1    1   19   15
 -4.319212969922104e-09    1    1   19   16
 3.437210470452062e-06    1    1   19   17
 -1.077493927784806e-05    1    1   19   18
 0.3075107375335143    1    1   19   19
 0.0001029029105248951    2    1    1    1
 4.188688908489706e-07    2    1    2    1
 0.0001109907719389905    2    1    2    2
 2.107487135410898e-08    2    1    3    1
 0.0003052704857401717    2    1    3    2
 -3.768110993891667e-05    2    1    3    3
 -1.367991542532056e-05    2    1    4    1
 -3.524158397608969e-05    2    1    4    2
 -5.201159323314028e-08    2    1    4    3
 -2.183635011429897e-06    2    1    4    4
 -7.757821910285393e-06    2    1    5    1
 3.292479839858004e-05    2    1    5    2
 6.288323228232297e-09    2    1    5    3
 1.767719564207207e-06    2    1    5    4
 3.088201280969872e-06    2    1    5    5
 -1.314239659427132e-05    2    1    6    1
 -9.87360938529536e-06    2    1    6    2
 -4.063401264785397e-05    2    1    6    3
 -2.128325521876819e-05    2    1    6    4
 -2.357993344074877e-05    2    1    6    5
 5.075646966157352e-07    2    1    6    6
 -1.216823903773118e-11    2    1    7    1
 -3.379627889762343e-11    2    1    7    2
 6.139759617172859e-12    2    1    7    3
 3.253265516316058e-11    2    1    7    4
 1.296976667029427e-10    2    1    7    5
 -1.179721926671814e-09    2    1    7    6
 -8.924331464952071e-07    2    1    7    7
 -2.909360918697056e-06    2    1    8    1
 1.553624601263962e-05    2    1    8    2
 9.171629590809053e-08    2    1    8    3
 4.095476307470383e-06    2    1    8    4
 -1.362223145297762e-07    2    1    8    5
 6.741686244027954e-06    2    1    8    6
 -6.28706567092996e-11    2    1    8    7
 5.717177978989084e-07    2    1    8    8
 4.897889280469704e-09    2    1    9    1
 9.040608820269962e-10    2    1    9    2
 3.678126348339371e-09    2    1    9    3
 8.040925958329488e-09    2    1    9    4
 -9.700223495997085e-10    2    1    9    5
 6.265791202827592e-10    2    1    9    6
 8.633222608340451e-07    2    1    9    7
 3.073973039592914e-09    2    1    9    8
 -2.763315035571408e-07    2    1    9    9
 3.954887185442619e-05    2    1   10    1
 6.49367597115956e-06    2    1   10    2
 2.642118352122171e-05    2    1   10    3
 5.818067052852389e-05    2    1   10    4
 7.031914973195776e-06    2    1   10    5
 2.986345248795418e-06    2    1   10    6
 -2.154001816356019e-10    2    1   10    7
 1.764871532077427e-05    2    1   10    8
 6.775278131052073e-11    2    1   10    9
 -5.98600314665631e-07    2    1   10   10
 -1.282880531523446e-06    2    1   11    1
 1.723538008613934e-05    2    1   11    2
 -8.814878700425025e-08    2    1   11    3
 3.546380419933552e-06    2    1   11    4
 4.966963367616027e-07    2    1   11    5
 1.566061168728172e-05    2    1   11    6
 2.541675789996352e-11    2    1   11    7
 2.057700904151233e-06    2    1   11    8
 3.411018745895932e-09    2    1   11    9
 4.597315275303196e-06    2    1   11   10
 5.698760170619352e-07    2    1   11   11
 9.413565189869446e-10    2    1   12    1
 -1.384344977953225e-08    2    1   12    2
 7.576718149038413e-11    2    1   12    3
 -2.979964146264884e-09    2    1   12    4
 -4.782053679329426e-10    2    1   12    5
 -1.296606093912416e-08    2    1   12    6
 1.284473390595533e-08    2    1   12    7
 -1.728080122513945e-09    2    1   12    8
 3.051989525480766e-06    2    1   12    9
 -3.969892887013174e-09    2    1   12   10
 1.118465552668024e-10    2    1   12   11
 7.056753086620249e-07    2    1   12   12
 -3.583241089374082e-05    2    1   13    1
 5.276990376490541e-06    2    1   13    2
 2.198743069116689e-05    2    1   13    3
 -1.857455436732341e-05    2    1   13    4
 -4.163841487392223e-05    2    1   13    5
 3.020070976996888e-06    2    1   13    6
 -5.874973463042392e-10    2    1   13    7
 -7.603009413339184e-06    2    1   13    8
 8.037998208799288e-11    2    1   13    9
 -3.866826018085187e-07    2    1   13   10
 -9.719401968864393e-06    2    1   13   11
 7.779653981023123e-09    2    1   13   12
 8.352083978759781e-07    2    1   13   13
 1.010071517187676e-05    2    1   14    1
 -5.929349960314656e-05    2    1   14    2
 2.644787692412836e-09    2    1   14    3
 -5.646683070038741e-07    2    1   14    4
 2.558350217648613e-06    2    1   14    5
 -1.342302879619413e-05    2    1   14    6
 3.60019313589756e-10    2    1   14    7
 9.532445217412134e-07    2    1   14    8
 -1.835884852285683e-09    2    1   14    9
 -4.483151219574459e-06    2    1   14   10
 1.327461740610808e-06    2    1   14   11
 -1.028311216037412e-09    2    1   14   12
 2.140607874713692e-05    2    1   14   13
 -3.44402105287456e-06    2    1   14   14
 3.699954804725631e-09    2    1   15    1
 -1.560809291324084e-08    2    1   15    2
 2.685031315755199e-11    2    1   15    3
 -5.703146996245631e-10    2    1   15    4
 1.975595321359592e-09    2    1   15    5
 -1.146388880444958e-08    2    1   15    6
 -1.316321508121357e-06    2    1   15    7
 1.489978583870261e-10    2    1   15    8
 4.554992896570725e-06    2    1   15    9
 -9.276338930291513e-09    2    1   15   10
 -4.863542142531282e-10    2    1   15   11
 -2.194477236037552e-07    2    1   15   12
 -1.683186319734952e-09    2    1   15   13
 -6.139241704443077e-10    2    1   15   14
 -1.073389180906423e-06    2    1   15   15
 -2.532902151281289e-06    2    1   16    1
 -4.458503689409301e-06    2    1   16    2
 4.873129122159008e-08    2    1   16    3
 6.944767891595605e-07    2    1   16    4
 -3.112956234035392e-06    2    1   16    5
 1.801092234047371e-05    2    1   16    6
 -5.387207023233959e-10    2    1   16    7
 4.422632157136473e-07    2    1   16    8
 4.920218608856405e-09    2    1   16    9
 1.957613191762468e-05    2    1   16   10
 1.457748307670419e-06    2    1   16   11
 -1.3619656369712e-09    2    1   16   12
 1.802896541904844e-05    2    1   16   13
 -2.607543894343375e-07    2    1   16   14
 -1.876689484316043e-09    2    1   16   15
 3.106449308514681e-06    2    1   16   16
 -2.055398890919063e-05    2    1   17    1
 1.249569911460533e-05    2    1   17    2
 5.116324071324771e-05    2    1   17    3
 -1.207873617081608e-05    2    1   17    4
 4.09812935184608e-06    2    1   17    5
 -5.935385893939458e-07    2    1   17    6
 -6.770356995845633e-10    2    1   17    7
 -1.962184835321682e-05    2    1   17    8
 -3.912290122227286e-10    2    1   17    9
 -3.24394309045832e-06    2    1   17   10
 -2.608584015535987e-05    2    1   17   11
 2.19537481412564e-08    2    1   17   12
 -2.67658516159146e-06    2    1   17   13
 2.360889011815015e-05    2    1   17   14
 1.881567194029216e-08    2    1   17   15
 -2.853476171258181e-05    2    1   17   16
 1.421698459432525e-06    2    1   17   17
 2.28120565753442e-05    2    1   18    1
 -1.153040669458085e-05    2    1   18    2
 -4.660931302845345e-05    2    1   18    3
 3.128864830818844e-06    2    1   18    4
 2.736109384198946e-05    2    1   18    5
 -2.628789982313097e-06    2    1   18    6
 -6.477262656826362e-10    2    1   18    7
 1.085733172437847e-05    2    1   18    8
 2.462515161308162e-10    2    1   18    9
 1.238733602716424e-06    2    1   18   10
 1.132966662880852e-05    2    1   18   11
 -9.280073831109245e-09    2    1   18   12
 -6.235854602755508e-07    2    1   18   13
 -1.746057739365243e-05    2    1   18   14
 -1.296477858301156e-09    2    1   18   15
 -1.036528670196095e-05    2    1   18   16
 2.798158577419915e-06    2    1   18   17
 -1.372986980453516e-06    2    1   18   18
 -1.886356293163529e-09    2    1   19    1
 1.195545214566366e-09    2    1   19    2
 4.942041442184327e-09    2    1   19    3
 -8.935334248861702e-10    2    1   19    4
 4.770083970692338e-10    2    1   19    5
 -4.946684042683039e-11    2    1   19    6
 6.189592116770037e-06    2    1   19    7
 -2.253843279681307e-09    2    1   19    8
 -9.316949622390463e-07    2    1   19    9
 -2.292929156077242e-10    2    1   19   10
 -1.474712795363679e-09    2    1   19   11
 1.183031073251134e-06    2    1   19   12
 -2.737784306772075e-10    2    1   19   13
 2.007290525941834e-09    2    1   19   14
 3.768772972679989e-06    2    1   19   15
 -1.134813188323217e-09    2    1   19   16
 2.365316191078923e-10    2    1   19   17
 3.518467174844454e-10    2    1   19   18
 -1.200344564344889e-06    2    1   19   19
 0.3692795358315138    2    2    1    1
 0.0001109907719389904    2    2    2    1
 2.014663961790386    2    2    2    2
 0.0002958288715842587    2    2    3    1
 0.3622442834299434    2    2    3    2
 1.839184625313942    2    2    3    3
 0.0009822590955344884    2    2    4    1
 -0.03069865787121716    2    2    4    2
 -0.08242105455267709    2    2    4    3
 0.4684365532736032    2    2    4    4
 -0.0009029360793023876    2    2    5    1
 0.04571828709807903    2    2    5    2
 0.1243141574409983    2    2    5    3
 -0.08255218170896823    2    2    5    4
 0.4868061556865341    2    2    5    5
 0.0001972456798404186    2    2    6    1
 -0.1423683530082601    2    2    6    2
 -0.01553933502707131    2    2    6    3
 0.02301474788509755    2    2    6    4
 -0.03675086793716386    2    2    6    5
 0.4872636093349783    2    2    6    6
 -6.920190964601779e-08    2    2    7    1
 5.03354994993801e-07    2    2    7    2
 1.113413880383593e-06    2    2    7    3
 -3.042104964562625e-06    2    2    7    4
 1.965598527425144e-06    2    2    7    5
 1.714251826549079e-06    2    2    7    6
 0.4601277770606021    2    2    7    7
 -0.003117355111139246    2    2    8    1
 0.001167497925632728    2    2    8    2
 -0.001600813967556454    2    2    8    3
 -0.08569347400355748    2    2    8    4
 0.01267632528085993    2    2    8    5
 0.02215567996814363    2    2    8    6
 3.090885882746364e-06    2    2    8    7
 0.4716271480216369    2    2    8    8
 -7.679932192307726e-08    2    2    9    1
 -2.374068782550159e-06    2    2    9    2
 -2.093215196197771e-07    2    2    9    3
 -1.927948108807268e-06    2    2    9    4
 -2.719686998789439e-06    2    2    9    5
 -1.289454092681663e-06    2    2    9    6
 -0.03914051422305492    2    2    9    7
 3.88858644921608e-06    2    2    9    8
 0.4515286878195744    2    2    9    9
 -0.0006468444539946065    2    2   10    1
 0.005712735934126762    2    2   10    2
 0.001083807727881814    2    2   10    3
 -0.01509722426463686    2    2   10    4
 -0.01539497349818665    2    2   10    5
 -0.007058865760372894    2    2   10    6
 6.03901536310944e-06    2    2   10    7
 0.01644643359357096    2    2   10    8
 -1.148452778394066e-06    2    2   10    9
 0.4492338362278528    2    2   10   10
 -0.003626159147877807    2    2   11    1
 -0.0007604293913985414    2    2   11    2
 0.001410384152693288    2    2   11    3
 -0.02021017364374717    2    2   11    4
 -0.08332050827575277    2    2   11    5
 -0.01470166427858857    2    2   11    6
 -2.629351297650691e-05    2    2   11    7
 -0.07083507200774447    2    2   11    8
 1.540528511019459e-05    2    2   11    9
 0.01760969292411397    2    2   11   10
 0.51254063428112    2    2   11   11
 3.146609510876266e-06    2    2   12    1
 1.180402307326706e-06    2    2   12    2
 2.214362148556968e-07    2    2   12    3
 1.599200527067066e-05    2    2   12    4
 7.300184025929926e-05    2    2   12    5
 1.195222626385224e-05    2    2   12    6
 -0.02750719489833858    2    2   12    7
 6.180708577990454e-05    2    2   12    8
 0.01600445675682386    2    2   12    9
 -1.716055345277884e-05    2    2   12   10
 -0.000131518265748907    2    2   12   11
 0.3595511386314544    2    2   12   12
 0.0006956133839641687    2    2   13    1
 -0.01090938015306662    2    2   13    2
 -0.002660181403097955    2    2   13    3
 -0.0003130315831162444    2    2   13    4
 -0.01282105388765765    2    2   13    5
 -0.01493759983909971    2    2   13    6
 9.520960068113609e-08    2    2   13    7
 -0.01136781707504936    2    2   13    8
 6.942119344611358e-06    2    2   13    9
 0.08778854457999782    2    2   13   10
 0.04634026147005671    2    2   13   11
 -3.973154272911446e-05    2    2   13   12
 0.568011229423271    2    2   13   13
 -0.00586669741288754    2    2   14    1
 -0.03442483960188199    2    2   14    2
 -0.09337544536977591    2    2   14    3
 0.05730359981566733    2    2   14    4
 -0.07008111768214065    2    2   14    5
 0.01741889968714555    2    2   14    6
 -3.931845564626485e-05    2    2   14    7
 -0.04664557162565933    2    2   14    8
 1.961788339860382e-06    2    2   14    9
 -0.0230703124778399    2    2   14   10
 -0.06429099242108736    2    2   14   11
 6.475594409563663e-05    2    2   14   12
 -0.02956736976615332    2    2   14   13
 0.5202786108780286    2    2   14   14
 -2.152048910640663e-06    2    2   15    1
 4.245377840116831e-06    2    2   15    2
 1.28540818772003e-05    2    2   15    3
 1.130454427539685e-05    2    2   15    4
 1.714198222760744e-05    2    2   15    5
 -4.49187061406231e-06    2    2   15    6
 0.1460632603665468    2    2   15    7
 -6.166421847902948e-05    2    2   15    8
 -0.01910365889646245    2    2   15    9
 -8.824956360045134e-06    2    2   15   10
 -5.138751362122884e-05    2    2   15   11
 -0.04488346502329487    2    2   15   12
 -7.799084215448211e-06    2    2   15   13
 2.113913649495411e-05    2    2   15   14
 0.4955966296752196    2    2   15   15
 0.001549728467681802    2    2   16    1
 -0.0331967236976073    2    2   16    2
 -0.09444908398203841    2    2   16    3
 0.01395533051404403    2    2   16    4
 -0.08764082578699266    2    2   16    5
 0.02373573123619523    2    2   16    6
 6.164916308763757e-05    2    2   16    7
 0.1115481866903705    2    2   16    8
 -4.999410618803171e-06    2    2   16    9
 0.01322322524205937    2    2   16   10
 -0.00724644211954021    2    2   16   11
 -1.102171204875758e-05    2    2   16   12
 0.003677430072696256    2    2   16   13
 -0.03004009728043296    2    2   16   14
 -2.973320580686861e-06    2    2   16   15
 0.4863299363517082    2    2   16   16
 0.0003979460957032002    2    2   17    1
 0.175370206062065    2    2   17    2
 0.02022159807694407    2    2   17    3
 -0.01922779513920926    2    2   17    4
 0.03032441119828939    2    2   17    5
 -0.1532531442728773    2    2   17    6
 3.89200085456308e-06    2    2   17    7
 0.006554932669388206    2    2   17    8
 -2.449279089711438e-05    2    2   17    9
 -0.008167967405570738    2    2   17   10
 -0.006219212778751331    2    2   17   11
 5.171736642440618e-06    2    2   17   12
 -0.05553046171130204    2    2   17   13
 -0.02488391234658051    2    2   17   14
 1.340349772545324e-05    2    2   17   15
 -0.03491507970698193    2    2   17   16
 0.5201816959666699    2    2   17   17
 -0.0004711783113610154    2    2   18    1
 -0.04038457341382826    2    2   18    2
 -0.007406614916462511    2    2   18    3
 0.01713538653796973    2    2   18    4
 -0.006477247685941025    2    2   18    5
 -0.01087873588028207    2    2   18    6
 6.341726365797357e-07    2    2   18    7
 -0.03940054762955113    2    2   18    8
 -2.78581858971106e-05    2    2   18    9
 -0.1008474127971735    2    2   18   10
 0.01321758770485632    2    2   18   11
 -1.203672851374411e-05    2    2   18   12
 0.05824775859307506    2    2   18   13
 0.02041705374772161    2    2   18   14
 2.623712155949698e-05    2    2   18   15
 -0.04166334659356097    2    2   18   16
 -0.08692106807481119    2    2   18   17
 0.6408935585380189    2    2   18   18
 3.745331422689462e-08    2    2   19    1
 1.731738898959377e-05    2    2   19    2
 1.723088490224883e-06    2    2   19    3
 -1.237604709966741e-06    2    2   19    4
 2.589628150171525e-06    2    2   19    5
 -2.357555744098971e-05    2    2   19    6
 -0.02853538476577637    2    2   19    7
 -1.878658601100168e-06    2    2   19    8
 0.1650790633601222    2    2   19    9
 -2.824379044906976e-05    2    2   19   10
 5.998920948875868e-06    2    2   19   11
 0.005159527181059838    2    2   19   12
 4.301971617793829e-07    2    2   19   13
 1.106304575170837e-05    2    2   19   14
 -0.05351353632925146    2    2   19   15
 -2.896050960290997e-05    2    2   19   16
 -1.053687048652857e-05    2    2   19   17
 1.411415758208884e-07    2    2   19   18
 0.5476953111252444    2    2   19   19
 0.0008574244150915263    3    1    1    1
 2.107487135410915e-08    3    1    2    1
 0.0002958288715842588    3    1    2    2
 5.912561700647687e-07    3    1    3    1
 -3.654769619825641e-05    3    1    3    2
 0.0003140727197423272    3    1    3    3
 -0.0001139485066110174    3    1    4    1
 -5.203517141374776e-08    3    1    4    2
 -3.557921464426826e-05    3    1    4    3
 -1.807365752669469e-05    3    1    4    4
 -6.460775916793425e-05    3    1    5    1
 6.374943538722117e-09    3    1    5    2
 3.30136577386012e-05    3    1    5    3
 1.481329911645029e-05    3    1    5    4
 2.576915301162846e-05    3    1    5    5
 1.594230512001919e-06    3    1    6    1
 -4.035776360610095e-05    3    1    6    2
 9.855636475416711e-06    3    1    6    3
 2.551917414420977e-06    3    1    6    4
 2.820755375908075e-06    3    1    6    5
 4.130840194445384e-06    3    1    6    6
 -1.089645259803795e-10    3    1    7    1
 6.139189151273868e-12    3    1    7    2
 -8.652809157678128e-13    3    1    7    3
 2.61156844251961e-10    3    1    7    4
 1.070399844281388e-09    3    1    7    5
 1.408601208067335e-10    3    1    7    6
 -7.424075843174869e-06    3    1    7    7
 -2.422851776289168e-05    3    1    8    1
 9.181386342654571e-08    3    1    8    2
 1.625933103196399e-05    3    1    8    3
 3.414095181598717e-05    3    1    8    4
 -1.110736249252498e-06    3    1    8    5
 -8.103496784543018e-07    3    1    8    6
 -5.218757075540232e-10    3    1    8    7
 4.796988648369228e-06    3    1    8    8
 -5.878270441703885e-10    3    1    9    1
 3.74700717015298e-09    3    1    9    2
 -9.046954733427792e-10    3    1    9    3
 -9.6500043359098e-10    3    1    9    4
 1.165855836109189e-10    3    1    9    5
 5.211697216507398e-09    3    1    9    6
 -1.049797571936804e-07    3    1    9    7
 -3.683396073416608e-10    3    1    9    8
 -2.307349317271506e-06    3    1    9    9
 -4.756308870163736e-06    3    1   10    1
 2.681973008875371e-05    3    1   10    2
 -6.475877407662596e-06    3    1   10    3
 -6.970772240558043e-06    3    1   10    4
 -8.382826786552281e-07    3    1   10    5
 2.483921588990513e-05    3    1   10    6
 2.487075743338534e-11    3    1   10    7
 -2.110728517827933e-06    3    1   10    8
 5.607117102747511e-10    3    1   10    9
 -5.009378928045842e-06    3    1   10   10
 -1.057740419783704e-05    3    1   11    1
 -8.845789207832648e-08    3    1   11    2
 1.657121830834302e-05    3    1   11    3
 2.968798127371325e-05    3    1   11    4
 4.174563482884243e-06    3    1   11    5
 -1.889636041451712e-06    3    1   11    6
 2.562698647214259e-10    3    1   11    7
 1.722929092829139e-05    3    1   11    8
 -4.08918108137501e-10    3    1   11    9
 -5.464678886808022e-07    3    1   11   10
 4.785095586149417e-06    3    1   11   11
 7.757571158910228e-09    3    1   12    1
 7.602876834531276e-11    3    1   12    2
 -1.327140493734032e-08    3    1   12    3
 -2.49371831356709e-08    3    1   12    4
 -4.010588399501829e-09    3    1   12    5
 1.564700814145396e-09    3    1   12    6
 1.514140006760929e-07    3    1   12    7
 -1.446986700780022e-08    3    1   12    8
 -3.658900361604934e-07    3    1   12    9
 4.721398291951287e-10    3    1   12   10
 9.578857916986282e-10    3    1   12   11
 5.944390071796729e-06    3    1   12   12
 4.33274452596554e-06    3    1   13    1
 2.149881816109808e-05    3    1   13    2
 -5.316418589365789e-06    3    1   13    3
 2.232771763907828e-06    3    1   13    4
 5.011259649013493e-06    3    1   13    5
 2.512641267197495e-05    3    1   13    6
 7.010681261692725e-11    3    1   13    7
 9.174087947782537e-07    3    1   13    8
 6.633891589409868e-10    3    1   13    9
 -3.209121189176594e-06    3    1   13   10
 1.175859558853366e-06    3    1   13   11
 -9.41203328112324e-10    3    1   13   12
 6.839727366728878e-06    3    1   13   13
 8.415169705730028e-05    3    1   14    1
 3.411450987787345e-09    3    1   14    2
 -5.941036221369532e-05    3    1   14    3
 -4.705810493129697e-06    3    1   14    4
 2.12489226259566e-05    3    1   14    5
 1.601026091306662e-06    3    1   14    6
 2.991993876391194e-09    3    1   14    7
 8.034468863958473e-06    3    1   14    8
 2.173704953759167e-10    3    1   14    9
 5.295383508180637e-07    3    1   14   10
 1.115363488873408e-05    3    1   14   11
 -8.644792242473209e-09    3    1   14   12
 -2.592511901678899e-06    3    1   14   13
 -2.875837984596609e-05    3    1   14   14
 3.104039803763449e-08    3    1   15    1
 2.713168177796861e-11    3    1   15    2
 -1.591621095429119e-08    3    1   15    3
 -4.622766899481326e-09    3    1   15    4
 1.643876235961429e-08    3    1   15    5
 1.367440414438341e-09    3    1   15    6
 -1.09674364840835e-05    3    1   15    7
 1.451654410972466e-09    3    1   15    8
 -5.467284310419893e-07    3    1   15    9
 1.079956288784719e-09    3    1   15   10
 -3.813383410193303e-09    3    1   15   11
 -1.844513200321267e-06    3    1   15   12
 1.730563166472405e-10    3    1   15   13
 -5.418990455749353e-09    3    1   15   14
 -8.946883574019052e-06    3    1   15   15
 -2.120060118367361e-05    3    1   16    1
 4.868210092735894e-08    3    1   16    2
 -3.821289003329824e-06    3    1   16    3
 5.716426288819967e-06    3    1   16    4
 -2.590788155415081e-05    3    1   16    5
 -2.151998424869715e-06    3    1   16    6
 -4.490401828391798e-09    3    1   16    7
 3.58183487656256e-06    3    1   16    8