 &FCI NORB=  28,NELEC=12,MS2=0,
  ORBSYM=1,1,1,1,1,1,1,1,1,1,1,1,1,1,1,1,1,1,1,1,1,1,1,1,1,1,1,1,
  ISYM=1,
 &END
 1.961548078694239    1    1    1    1
 -7.574070836083248e-11    1    1    2    1
 1.96249851565926    1    1    2    2
 -0.1729154819353051    1    1    3    1
 4.587142335220991e-12    1    1    3    2
 0.6923066945900908    1    1    3    3
 1.102560318367338e-11    1    1    4    1
 -0.154222168797546    1    1    4    2
 -8.124747619478456e-12    1    1    4    3
 0.5545009122953899    1    1    4    4
 0.5750337409595684    1    1    5    5
 0.5750337409595688    1    1    6    6
 -0.03477392421061718    1    1    7    1
 1.737449643047216e-13    1    1    7    2
 -0.0914951343117628    1    1    7    3
 -8.492370326927678e-12    1    1    7    4
 0.5581630569196211    1    1    7    7
 -7.735792258503627e-12    1    1    8    5
 -4.560052856150687e-12    1    1    8    6
 0.4936901348092351    1    1    8    8
 -4.560404354495007e-12    1    1    9    5
 7.735560889760018e-12    1    1    9    6
 0.4936901348092346    1    1    9    9
 -6.742488186696483e-12    1    1   10    1
 0.09225673486924835    1    1   10    2
 4.520734047525066e-12    1    1   10    3
 -0.1233750457619447    1    1   10    4
 1.005005540594128e-13    1    1   10    7
 0.323854407404569    1    1   10   10
 -0.01226888022274124    1    1   11    1
 -2.915857151271437e-13    1    1   11    2
 -0.06695365158601625    1    1   11    3
 -2.817139967484228e-12    1    1   11    4
 0.1767760438868922    1    1   11    7
 2.950960656389334e-12    1    1   11   10
 0.4434885278491367    1    1   11   11
 -0.06348477112796158    1    1   12    5
 0.1861437340187217    1    1   12    6
 -1.017474299258581e-12    1    1   12    8
 4.925387571755313e-12    1    1   12    9
 0.4873120345997566    1    1   12   12
 0.1861437340187218    1    1   13    5
 0.0634847711279616    1    1   13    6
 -4.924505681708213e-12    1    1   13    8
 -1.019887299613664e-12    1    1   13    9
 0.4873120345997571    1    1   13   13
 -0.133293024419639    1    1   14    1
 3.047715005645673e-12    1    1   14    2
 0.1319458480981568    1    1   14    3
 -7.255748302528731e-12    1    1   14    4
 0.1003320374690606    1    1   14    7
 4.155059976640452e-12    1    1   14   10
 0.01646175508607825    1    1   14   11
 0.4879157772297581    1    1   14   14
 -1.83862782854663e-12    1    1   15    5
 8.104562593952425e-12    1    1   15    6
 -0.06585104357377616    1    1   15    8
 0.2059642391107568    1    1   15    9
 9.570711844569812e-12    1    1   15   12
 1.013122311738224e-12    1    1   15   13
 0.5409012377922857    1    1   15   15
 8.104039900085069e-12    1    1   16    5
 1.840958917427582e-12    1    1   16    6
 -0.2059642391107573    1    1   16    8
 -0.06585104357377607    1    1   16    9
 -1.013110602354761e-12    1    1   16   12
 9.570983979315106e-12    1    1   16   13
 0.5409012377922866    1    1   16   16
 6.096371983079461e-13    1    1   17    1
 0.001550197273306776    1    1   17    2
 -3.886578558986997e-12    1    1   17    3
 -0.07547357321747841    1    1   17    4
 9.237475584802923e-12    1    1   17    7
 -0.03642945808254674    1    1   17   10
 6.165744997899125e-12    1    1   17   11
 6.153862142088684e-12    1    1   17   14
 0.6191636731282771    1    1   17   17
 -1.590509130856137e-15    1    1   18   13
 0.4989090183388789    1    1   18   18
 0.4989090183388787    1    1   19   19
 -1.018722872748459e-11    1    1   20    1
 0.1368960215221939    1    1   20    2
 7.351786280446193e-12    1    1   20    3
 -0.1260043750969159    1    1   20    4
 -1.774840691082247e-12    1    1   20    7
 0.1251536909358004    1    1   20   10
 -9.111045251586347e-13    1    1   20   11
 5.42864364572182e-12    1    1   20   14
 -0.09742559690185806    1    1   20   17
 0.4991328737891291    1    1   20   20
 0.006938951705155565    1    1   21    5
 -0.01083890254191196    1    1   21    6
 -1.986839512357896e-13    1    1   21    8
 -5.398213993867973e-12    1    1   21    9
 -0.02334476676202689    1    1   21   12
 0.005731812128930029    1    1   21   13
 -4.10999359545805e-12    1    1   21   15
 1.482638664618285e-12    1    1   21   16
 0.536871532337754    1    1   21   21
 0.01083890254191226    1    1   22    5
 0.006938951705155339    1    1   22    6
 -5.398136798673292e-12    1    1   22    8
 1.986527262132221e-13    1    1   22    9
 0.005731812128930029    1    1   22   12
 0.02334476676202659    1    1   22   13
 1.482994282930861e-12    1    1   22   15
 4.109965839882435e-12    1    1   22   16
 -2.387672801928262e-15    1    1   22   18
 0.5368715323377544    1    1   22   22
 -6.806277763615753e-12    1    1   23   18
 -3.25655382651599e-13    1    1   23   19
 0.4887294185947454    1    1   23   23
 3.256431582721042e-13    1    1   24   18
 -6.805972307441348e-12    1    1   24   19
 0.4887294185947455    1    1   24   24
 -0.01552971175477437    1    1   25    1
 3.615519308366923e-13    1    1   25    2
 0.00151151622865768    1    1   25    3
 -7.223284470558866e-13    1    1   25    4
 0.01666099284746828    1    1   25    7
 -1.956868449744933e-15    1    1   25    9
 1.899234242097592e-12    1    1   25   10
 0.04835767308036504    1    1   25   11
 -0.01770810250277578    1    1   25   14
 -4.216789558086722e-15    1    1   25   15
 -5.539735337123375e-12    1    1   25   17
 3.64104579819724e-12    1    1   25   20
 0.5178871057881916    1    1   25   25
 -1.030068268505972e-15    1    1   26    2
 8.658481917556138e-13    1    1   26    5
 -2.267759764695843e-12    1    1   26    6
 0.007603181303920939    1    1   26    8
 -0.04483706917681135    1    1   26    9
 -1.79089030071938e-15    1    1   26   11
 -3.563772540959853e-12    1    1   26   12
 1.288812806476969e-13    1    1   26   13
 1.134863355019218e-15    1    1   26   14
 -0.09725985070730102    1    1   26   15
 0.01385227714672192    1    1   26   16
 -5.236588940249476e-12    1    1   26   21
 1.087588352710611e-12    1    1   26   22
 0.5102643039647475    1    1   26   26
 -2.267615565806902e-12    1    1   27    5
 -8.656712499610641e-13    1    1   27    6
 0.04483706917681148    1    1   27    8
 0.007603181303921352    1    1   27    9
 -1.279081007776739e-13    1    1   27   12
 -3.563472433798509e-12    1    1   27   13
 -0.01385227714672187    1    1   27   15
 -0.09725985070730123    1    1   27   16
 1.087463452620341e-12    1    1   27   21
 5.236540367992149e-12    1    1   27   22
 0.5102643039647482    1    1   27   27
 5.139984289667004e-12    1    1   28    1
 -0.05805731131512164    1    1   28    2
 -5.799503889278301e-12    1    1   28    3
 -0.01965889495722242    1    1   28    4
 6.281853509593205e-12    1    1   28    7
 -0.004257657275872784    1    1   28   10
 8.248064991417392e-12    1    1   28   11
 1.600265059353845e-13    1    1   28   14
 0.2116393580015245    1    1   28   17
 -0.1294373809085608    1    1   28   20
 2.997185832853688e-12    1    1   28   25
 1.048929042904381e-15    1    1   28   26
 0.7347036725649329    1    1   28   28
 -7.574145122736194e-11    2    1    1    1
 1.545782188024519    2    1    2    1
 7.569003870423806e-11    2    1    2    2
 4.416937005559331e-12    2    1    3    1
 -0.1800289351206024    2    1    3    2
 -7.563394355258879e-15    2    1    3    3
 -0.1480234694791207    2    1    4    1
 -3.624765467079592e-12    2    1    4    2
 0.1659616457551215    2    1    4    3
 -5.716727004972944e-15    2    1    4    4
 -8.543811274783208e-15    2    1    5    5
 -8.122408995392405e-15    2    1    6    6
 5.101563253803276e-13    2    1    7    1
 -0.0210329353673002    2    1    7    2
 1.546939659702318e-15    2    1    7    3
 0.1733132639516523    2    1    7    4
 3.570440384320639e-15    2    1    7    7
 0.1579115664720982    2    1    8    5
 0.09308951181108989    2    1    8    6
 2.119235776448791e-15    2    1    8    8
 0.09308951181108975    2    1    9    5
 -0.1579115664720981    2    1    9    6
 2.331522561821453e-15    2    1    9    9
 0.09154424485804695    2    1   10    1
 2.242240593018432e-12    2    1   10    2
 -0.09238281248952625    2    1   10    3
 3.265169710130189e-15    2    1   10    4
 -0.001806795381991054    2    1   10    7
 -1.533842497458693e-14    2    1   10   10
 -1.862579711233055e-15    2    1   11    1
 -0.000412342878743591    2    1   11    2
 1.194011523767552e-14    2    1   11    3
 0.05764479299999712    2    1   11    4
 -4.307555560075643e-15    2    1   11    7
 -0.06010380338497341    2    1   11   10
 5.323920557881445e-15    2    1   11   11
 7.540815845016868e-15    2    1   12    5
 -1.820893154140524e-14    2    1   12    6
 0.02072249473727233    2    1   12    8
 -0.1001755838480546    2    1   12    9
 -3.951071241015125e-14    2    1   12   12
 -1.86417924825065e-14    2    1   13    5
 -5.235232820172131e-15    2    1   13    6
 0.1001755838480546    2    1   13    8
 0.02072249473727236    2    1   13    9
 2.301164900991859e-15    2    1   13   12
 -3.881454619519831e-14    2    1   13   13
 3.160514124780601e-12    2    1   14    1
 -0.128730625730774    2    1   14    2
 -4.566632445454633e-15    2    1   14    3
 0.1478610693416277    2    1   14    4
 -1.073423847638283e-14    2    1   14    7
 -0.08478039855484851    2    1   14   10
 -4.224431134763895e-15    2    1   14   11
 -3.247163822550636e-14    2    1   14   14
 0.03763085910520585    2    1   15    5
 -0.1657752610939262    2    1   15    6
 -2.545977751539086e-15    2    1   15    8
 1.038934021278803e-14    2    1   15    9
 -0.1953230499152865    2    1   15   12
 -0.0206764699522789    2    1   15   13
 3.728029170091407e-14    2    1   15   15
 -0.1657752610939263    2    1   16    5
 -0.03763085910520608    2    1   16    6
 -9.892775617789673e-15    2    1   16    8
 -4.041797278808712e-15    2    1   16    9
 0.02067646995227902    2    1   16   12
 -0.1953230499152868    2    1   16   13
 -2.793772158060648e-15    2    1   16   15
 3.75210930034231e-14    2    1   16   16
 -0.01301314863183089    2    1   17    1
 -3.083818550048351e-13    2    1   17    2
 0.0792264601399718    2    1   17    3
 -5.377127779496171e-15    2    1   17    4
 -0.1888435314393237    2    1   17    7
 -2.855138001023327e-15    2    1   17   10
 -0.1257711767415262    2    1   17   11
 -0.125530149109344    2    1   17   14
 2.545359756300769e-14    2    1   17   17
 -7.192407880959194e-15    2    1   18    8
 1.811957931323444e-15    2    1   18   15
 5.481552788620718e-15    2    1   18   16
 -1.15411152856737e-14    2    1   18   18
 -1.292876454982355e-14    2    1   19   19
 0.139639071401127    2    1   20    1
 3.423225854799934e-12    2    1   20    2
 -0.1502420532004549    2    1   20    3
 -8.651147289859273e-15    2    1   20    4
 0.03611258818476767    2    1   20    7
 1.468746999022663e-14    2    1   20   10
 0.01834735195406822    2    1   20   11
 -0.1109949844232527    2    1   20   14
 1.156843718042033e-14    2    1   20   17
 -6.22071838485283e-15    2    1   20   20
 0.004057568548162371    2    1   21    8
 0.1102658353553534    2    1   21    9
 4.510281037539698e-15    2    1   21   12
 -1.540434446667405e-15    2    1   21   13
 0.08403313775134817    2    1   21   15
 -0.03031606675772939    2    1   21   16
 0.1102658353553535    2    1   22    8
 -0.004057568548162246    2    1   22    9
 -4.027160549480157e-15    2    1   22   13
 -0.03031606675772898    2    1   22   15
 -0.08403313775134839    2    1   22   16
 0.1389612919130245    2    1   23   18
 0.006648893207277204    2    1   23   19
 9.172981156850803e-15    2    1   23   22
 1.168856678113173e-14    2    1   23   23
 -0.006648893207277231    2    1   24   18
 0.1389612919130243    2    1   24   19
 1.29071287078425e-14    2    1   24   24
 3.622553747587281e-13    2    1   25    1
 -0.01538274715625893    2    1   25    2
 1.907328461836499e-14    2    1   25    3
 0.01472397686888915    2    1   25    4
 1.929515230690519e-15    2    1   25    6
 -1.788510745753813e-14    2    1   25    7
 -0.03882006710335399    2    1   25   10
 -1.753501857604256e-14    2    1   25   11
 3.150090029352024e-15    2    1   25   12
 4.288236432614667e-15    2    1   25   14
 0.1137712921795915    2    1   25   17
 -0.07465872422695596    2    1   25   20
 4.746313253644241e-15    2    1   25   21
 -1.038058528024521e-14    2    1   25   25
 -1.058421270863259e-15    2    1   26    1
 1.13674147084095e-15    2    1   26    3
 -0.0176669245456716    2    1   26    5
 0.0462766708717634    2    1   26    6
 1.703931799833508e-15    2    1   26   10
 0.07254977668639211    2    1   26   12
 -0.002613569229857803    2    1   26   13
 -7.696968062909095e-15    2    1   26   15
 1.494464274554019e-15    2    1   26   16
 -5.139615214343185e-15    2    1   26   17
 1.295340923410782e-15    2    1   26   18
 3.468242552615838e-15    2    1   26   20
 0.1068886815071452    2    1   26   21
 -0.02219730042366286    2    1   26   22
 4.399258735077052e-15    2    1   26   26
 0.04627667087176349    2    1   27    5
 0.01766692454567145    2    1   27    6
 0.002613569229857452    2    1   27   12
 0.0725497766863924    2    1   27   13
 -7.72038682983478e-15    2    1   27   16
 7.125023790911306e-15    2    1   27   18
 -0.02219730042366257    2    1   27   21
 -0.1068886815071453    2    1   27   22
 4.371503159461554e-15    2    1   27   27
 -0.07583719393431623    2    1   28    1
 -1.851848093476611e-12    2    1   28    2
 0.1183428841493753    2    1   28    3
 2.44281591482709e-15    2    1   28    4
 -0.1282791196055104    2    1   28    7
 -4.804316666717767e-15    2    1   28   10
 -0.1683530112470046    2    1   28   11
 -0.002963549216074889    2    1   28   14
 -9.239137233052475e-15    2    1   28   17
 -1.210836986231811e-15    2    1   28   20
 -0.06046520892727363    2    1   28   25
 2.450606876488918e-15    2    1   28   26
 1.240674230018612e-14    2    1   28   28
 1.96249851565926    2    2    1    1
 7.569049283587053e-11    2    2    2    1
 1.963449915106775    2    2    2    2
 -0.17308172086631    2    2    3    1
 -1.305337872772243e-11    2    2    3    2
 0.6922620713498508    2    2    3    3
 -3.472541034560926e-12    2    2    4    1
 -0.1543457716826172    2    2    4    2
 8.133568254672929e-12    2    2    4    3
 0.5545608860735634    2    2    4    4
 0.5750314272608246    2    2    5    5
 0.5750314272608248    2    2    6    6
 -0.03477456733799211    2    2    7    1
 -1.886775220076868e-12    2    2    7    2
 -0.09142858598024456    2    2    7    3
 8.486241115206183e-12    2    2    7    4
 0.5581723817458826    2    2    7    7
 7.733904445680895e-12    2    2    8    5
 4.559385854974174e-12    2    2    8    6
 0.4937118553025647    2    2    8    8
 4.559095071951513e-12    2    2    9    5
 -7.734117599828005e-12    2    2    9    6
 0.4937118553025642    2    2    9    9
 2.224061521294242e-12    2    2   10    1
 0.09233867019415448    2    2   10    2
 -4.530127141466611e-12    2    2   10    3
 -0.1233955437836005    2    2   10    4
 -7.698420893820224e-14    2    2   10    7
 0.3238703829090002    2    2   10   10
 -0.0122526075399437    2    2   11    1
 -3.315260765294602e-13    2    2   11    2
 -0.06691576835807346    2    2   11    3
 2.830077752008497e-12    2    2   11    4
 0.1767712806632985    2    2   11    7
 -2.936527757069207e-12    2    2   11   10
 0.443483716689777    2    2   11   11
 -0.06348873267811775    2    2   12    5
 0.1861553496822181    2    2   12    6
 1.01256763390678e-12    2    2   12    8
 -4.888321084722813e-12    2    2   12    9
 0.4873264248301641    2    2   12   12
 0.1861553496822183    2    2   13    5
 0.06348873267811776    2    2   13    6
 4.889240705005515e-12    2    2   13    8
 1.010204290011196e-12    2    2   13    9
 0.4873264248301647    2    2   13   13
 -0.1333986146901357    2    2   14    1
 -9.566265736442423e-12    2    2   14    2
 0.1319637038956833    2    2   14    3
 7.228921237653618e-12    2    2   14    4
 0.1003802636390543    2    2   14    7
 -4.149871418723805e-12    2    2   14   10
 0.01650247308886872    2    2   14   11
 0.4879521332903543    2    2   14   14
 1.847875205716193e-12    2    2   15    5
 -8.135544538392936e-12    2    2   15    6
 -0.06585996334197869    2    2   15    8
 0.2059921377312063    2    2   15    9
 -9.563953361907407e-12    2    2   15   12
 -1.012376380643554e-12    2    2   15   13
 0.540945389353263    2    2   15   15
 -8.136150119516378e-12    2    2   16    5
 -1.845526878020698e-12    2    2   16    6
 -0.2059921377312068    2    2   16    8
 -0.06585996334197859    2    2   16    9
 1.012455527402145e-12    2    2   16   12
 -9.563879202478809e-12    2    2   16   13
 0.5409453893532638    2    2   16   16
 -6.643426721285664e-13    2    2   17    1
 0.001514993000505999    2    2   17    2
 3.875111169449053e-12    2    2   17    3
 -0.07551742589669928    2    2   17    4
 -9.262323113351512e-12    2    2   17    7
 -0.03641183040353824    2    2   17   10
 -6.155721765654931e-12    2    2   17   11
 -6.143672376390796e-12    2    2   17   14
 0.6192022946565117    2    2   17   17
 -1.592706231385071e-15    2    2   18   13
 0.4988922294786526    2    2   18   18
 0.4988922294786523    2    2   19   19
 3.489432530019688e-12    2    2   20    1
 0.1370224049360223    2    2   20    2
 -7.365181381446817e-12    2    2   20    3
 -0.1260259472025636    2    2   20    4
 1.763891333342316e-12    2    2   20    7
 0.125164372520217    2    2   20   10
 8.85650060233889e-13    2    2   20   11
 -5.442351430628989e-12    2    2   20   14
 -0.09740795580364361    2    2   20   17
 0.4991413673707816    2    2   20   20
 0.006967955642699026    2    2   21    5
 -0.01088420777903183    2    2   21    6
 1.988123207730119e-13    2    2   21    8
 5.403858784058801e-12    2    2   21    9
 -0.02337982518676541    2    2   21   12
 0.005740419981224536    2    2   21   13
 4.122379521076525e-12    2    2   21   15
 -1.487261702681764e-12    2    2   21   16
 0.5368634270032691    2    2   21   21
 0.01088420777903213    2    2   22    5
 0.006967955642698786    2    2   22    6
 5.403942918147386e-12    2    2   22    8
 -1.98802779793894e-13    2    2   22    9
 0.005740419981224532    2    2   22   12
 0.02337982518676515    2    2   22   13
 -1.486959860796944e-12    2    2   22   15
 -4.12238992941738e-12    2    2   22   16
 -2.388228440591937e-15    2    2   22   18
 0.5368634270032693    2    2   22   22
 6.807089614202511e-12    2    2   23   18
 3.256930044669842e-13    2    2   23   19
 0.4887286241240852    2    2   23   23
 -3.257138482537503e-13    2    2   24   18
 6.807246657499063e-12    2    2   24   19
 0.4887286241240854    2    2   24   24
 -0.01554243897878965    2    2   25    1
 -1.146082977598797e-12    2    2   25    2
 0.001556535649192983    2    2   25    3
 7.196153395394589e-13    2    2   25    4
 0.01661529119698505    2    2   25    7
 -1.956402540320976e-15    2    2   25    9
 -1.903071450426452e-12    2    2   25   10
 0.04832818833612409    2    2   25   11
 -0.01770658029054534    2    2   25   14
 -4.21677268030473e-15    2    2   25   15
 5.606112796208151e-12    2    2   25   17
 -3.67203489837209e-12    2    2   25   20
 0.5178768205614813    2    2   25   25
 -1.030898420479113e-15    2    2   26    2
 -8.648609172573485e-13    2    2   26    5
 2.265644269416889e-12    2    2   26    6
 0.007600855434991212    2    2   26    8
 -0.04482335318847325    2    2   26    9
 -1.789648147133369e-15    2    2   26   11
 3.543526583271728e-12    2    2   26   12
 -1.270528821040173e-13    2    2   26   13
 1.134843560835477e-15    2    2   26   14
 -0.0972572490630539    2    2   26   15
 0.0138519066063922    2    2   26   16
 5.234680744425901e-12    2    2   26   21
 -1.087074874561722e-12    2    2   26   22
 0.5102684435120651    2    2   26   26
 2.265826849062735e-12    2    2   27    5
 8.650311369984287e-13    2    2   27    6
 0.0448233531884734    2    2   27    8
 0.007600855434991673    2    2   27    9
 1.281648398521185e-13    2    2   27   12
 3.543885671031255e-12    2    2   27   13
 -0.01385190660639218    2    2   27   15
 -0.09725724906305411    2    2   27   16
 -1.08692915778974e-12    2    2   27   21
 -5.234562783229535e-12    2    2   27   22
 0.5102684435120659    2    2   27   27
 -2.287436716990221e-12    2    2   28    1
 -0.05815642070081459    2    2   28    2
 5.794095021480206e-12    2    2   28    3
 -0.01966840852900125    2    2   28    4
 -6.284182701120355e-12    2    2   28    7
 -0.004248447030794564    2    2   28   10
 -8.245205733448113e-12    2    2   28   11
 -1.323177678536069e-13    2    2   28   14
 0.2116499271891206    2    2   28   17
 -0.1294174003733548    2    2   28   20
 -2.926998921015667e-12    2    2   28   25
 1.048865431232159e-15    2    2   28   26
 0.7347230942953618    2    2   28   28
 -0.1729154819353051    3    1    1    1
 4.417003249359158e-12    3    1    2    1
 -0.1730817208663099    3    1    2    2
 0.03024199498483893    3    1    3    1
 3.082865826447521e-15    3    1    3    2
 0.0003618347615510324    3    1    3    3
 -1.107529347806311e-12    3    1    4    1
 0.02251260054639206    3    1    4    2
 2.014032929147092e-13    3    1    4    3
 -0.009418071303082325    3    1    4    4
 -0.0008622104620628936    3    1    5    5
 -0.0008622104620628996    3    1    6    6
 3.483155548476828e-05    3    1    7    1
 -1.051432220055645e-14    3    1    7    2
 -0.006043769046014244    3    1    7    3
 2.20291019719385e-13    3    1    7    4
 -0.004249049952610305    3    1    7    7
 1.281182547340854e-13    3    1    8    5
 7.55211865266503e-14    3    1    8    6
 -0.003143515304463099    3    1    8    8
 7.553070548291154e-14    3    1    9    5
 -1.281182327112287e-13    3    1    9    6
 -0.003143515304463093    3    1    9    9
 7.357158284496922e-13    3    1   10    1
 -0.01501578649698634    3    1   10    2
 -1.036234323987997e-13    3    1   10    3
 0.003552169530590288    3    1   10    4
 -3.790951266688077e-14    3    1   10    7
 -0.002637200926366155    3    1   10   10
 -0.003206548773774982    3    1   11    1
 -7.78710438577689e-15    3    1   11    2
 -0.002661065365904183    3    1   11    3
 9.327535624307007e-14    3    1   11    4
 -0.001984348837921939    3    1   11    7
 -7.071036464689762e-14    3    1   11   10
 -0.001839972782721499    3    1   11   11
 0.0008829686297138797    3    1   12    5
 -0.002588952828152279    3    1   12    6
 2.205664985507547e-14    3    1   12    8
 -1.067702106198262e-13    3    1   12    9
 -0.003168238231982149    3    1   12   12
 -0.00258895282815227    3    1   13    5
 -0.0008829686297138886    3    1   13    6
 1.067517453015761e-13    3    1   13    8
 2.210642489918792e-14    3    1   13    9
 -0.003168238231982142    3    1   13   13
 0.01901830042007405    3    1   14    1
 -5.368462950083115e-15    3    1   14    2
 -0.004268151616427253    3    1   14    3
 2.313776942055603e-13    3    1   14    4
 -0.006627928140587028    3    1   14    7
 -1.197487408169905e-13    3    1   14   10
 -0.005286602338136845    3    1   14   11
 -0.006575996471396849    3    1   14   14
 3.651829408530052e-14    3    1   15    5
 -1.609176997923768e-13    3    1   15    6
 0.001385584303293172    3    1   15    8
 -0.004333732637537623    3    1   15    9
 -2.006472245297264e-13    3    1   15   12
 -2.122531751053147e-14    3    1   15   13
 -0.006986304433593181    3    1   15   15
 -1.609152230680391e-13    3    1   16    5
 -3.654126561883006e-14    3    1   16    6
 0.004333732637537631    3    1   16    8
 0.001385584303293169    3    1   16    9
 2.125960540423633e-14    3    1   16   12
 -2.006446698783575e-13    3    1   16   13
 -0.006986304433593191    3    1   16   16
 -3.379618910267304e-13    3    1   17    1
 0.007109308151310719    3    1   17    2
 2.071601184594051e-15    3    1   17    3
 0.0066393280103179    3    1   17    4
 -2.164171827212698e-13    3    1   17    7
 -0.002232091853312279    3    1   17   10
 -1.557716426008916e-13    3    1   17   11
 -1.844379785345945e-13    3    1   17   14
 -0.00822178597513234    3    1   17   17
 0.001927979260828862    3    1   18   18
 0.001927979260828861    3    1   19   19
 1.137014442224563e-12    3    1   20    1
 -0.02326374266414779    3    1   20    2
 -1.353648909543231e-13    3    1   20    3
 0.003851647594724772    3    1   20    4
 -2.01370648264922e-14    3    1   20    7
 -0.002224120198991376    3    1   20   10
 -1.558001232367101e-14    3    1   20   11
 -1.292053757821071e-13    3    1   20   14
 -0.001321758278225312    3    1   20   17
 -0.002646282196371565    3    1   20   20
 -0.003330641192941517    3    1   21    5
 0.005202586330951041    3    1   21    6
 4.876649892281495e-15    3    1   21    8
 1.326871318168502e-13    3    1   21    9
 0.004314027772411727    3    1   21   12
 -0.001059217980737011    3    1   21   13
 1.25228847474082e-13    3    1   21   15
 -4.514379321751694e-14    3    1   21   16
 -0.0005135801393599216    3    1   21   21
 -0.005202586330951044    3    1   22    5
 -0.003330641192941518    3    1   22    6
 1.326889444673574e-13    3    1   22    8
 -4.881400053049698e-15    3    1   22    9
 -0.001059217980736999    3    1   22   12
 -0.004314027772411732    3    1   22   13
 -4.520990244498424e-14    3    1   22   15
 -1.252452189268866e-13    3    1   22   16
 -0.0005135801393599213    3    1   22   22
 7.076597066581897e-14    3    1   23   18
 3.386071235789217e-15    3    1   23   19
 0.0003927249385622464    3    1   23   23
 -3.386208812468697e-15    3    1   24   18
 7.077007918341319e-14    3    1   24   19
 0.0003927249385622441    3    1   24   24
 0.003271866948818819    3    1   25    1
 2.458746579626804e-15    3    1   25    2
 -0.003419038113747377    3    1   25    3
 -2.975137328067434e-14    3    1   25    4
 0.005173880730934595    3    1   25    7
 -2.115148334258521e-14    3    1   25   10
 0.003201443073666925    3    1   25   11
 0.0009476712295766836    3    1   25   14
 1.414605195135255e-13    3    1   25   17
 -6.666845894787166e-14    3    1   25   20
 -0.0004445749456542785    3    1   25   25
 -2.33151409149198e-15    3    1   26    5
 6.078227114333923e-15    3    1   26    6
 0.0002267006919969278    3    1   26    8
 -0.001336887048090632    3    1   26    9
 4.537982403046703e-14    3    1   26   12
 -1.644131608202065e-15    3    1   26   13
 0.0002112268537664281    3    1   26   15
 -3.00840778381195e-05    3    1   26   16
 5.976843369184803e-14    3    1   26   21
 -1.241633748941262e-14    3    1   26   22
 -0.001085204474653326    3    1   26   26
 6.076463591737739e-15    3    1   27    5
 2.331576771930077e-15    3    1   27    6
 0.001336887048090632    3    1   27    8
 0.0002267006919969136    3    1   27    9
 1.640201375326805e-15    3    1   27   12
 4.537695089470994e-14    3    1   27   13
 3.008407783812523e-05    3    1   27   15
 0.0002112268537664262    3    1   27   16
 -1.240617309404557e-14    3    1   27   21
 -5.97712526174965e-14    3    1   27   22
 -0.00108520447465334    3    1   27   27
 -9.15903743163466e-13    3    1   28    1
 0.01898666799554443    3    1   28    2
 8.10399958131678e-14    3    1   28    3
 0.001039424121400118    3    1   28    4
 -1.123002193759723e-13    3    1   28    7
 -0.0004380261351707258    3    1   28   10
 -1.609480235718885e-13    3    1   28   11
 -4.703832809371811e-14    3    1   28   14
 -0.005152242824488672    3    1   28   17
 -0.0003553388828121581    3    1   28   20
 1.486050865695532e-14    3    1   28   25
 -0.008481190795946399    3    1   28   28
 4.587181228856346e-12    3    2    1    1
 -0.1800289351206023    3    2    2    1
 -1.305333770422273e-11    3    2    2    2
 3.093155218731296e-15    3    2    3    1
 0.03006897648671394    3    2    3    2
 9.500249538603716e-15    3    2    3    3
 0.0227088913387745    3    2    4    1
 1.107509150980663e-12    3    2    4    2
 -0.008203714382469246    3    2    4    3
 -2.30333941244438e-13    3    2    4    4
 -2.072337002115331e-14    3    2    5    5
 -2.073840231486823e-14    3    2    6    6
 -1.051412939468183e-14    3    2    7    1
 0.0004914418966801088    3    2    7    2
 -1.481813668080187e-13    3    2    7    3
 -0.009001621727451555    3    2    7    4
 -1.042687444496654e-13    3    2    7    7
 -0.005224760448941311    3    2    8    5
 -0.003080017571782978    3    2    8    6
 -7.698220316418314e-14    3    2    8    8
 -0.003080017571782966    3    2    9    5
 0.005224760448941312    3    2    9    6
 -7.698792571877479e-14    3    2    9    9
 -0.01503848114670434    3    2   10    1
 -7.363579944216684e-13    3    2   10    2
 0.004218188316117267    3    2   10    3
 8.669199933657515e-14    3    2   10    4
 0.001544178562700313    3    2   10    7
 -6.415346904967492e-14    3    2   10   10
 -7.804679492251804e-15    3    2   11    1
 -0.002808808905905632    3    2   11    2
 -6.570423221610115e-14    3    2   11    3
 -0.003817461456064162    3    2   11    4
 -4.851846522948579e-14    3    2   11    7
 0.002894122744076437    3    2   11   10
 -4.528347403271685e-14    3    2   11   11
 2.129384925222792e-14    3    2   12    5
 -6.259132684263528e-14    3    2   12    6
 -0.0008973512570476846    3    2   12    8
 0.00433792780411967    3    2   12    9
 -7.586988627411237e-14    3    2   12   12
 -6.257328249975993e-14    3    2   13    5
 -2.138466134856895e-14    3    2   13    6
 -0.004337927804119669    3    2   13    8
 -0.0008973512570476788    3    2   13    9
 -7.589912923958338e-14    3    2   13   13
 -5.358418330468761e-15    3    2   14    1
 0.01919651447545154    3    2   14    2
 -1.039772482252631e-13    3    2   14    3
 -0.009410594677615383    3    2   14    4