 &FCI NORB=  28,NELEC=14,MS2=0,
  ORBSYM=1,1,1,1,1,1,1,1,1,1,1,1,1,1,1,1,1,1,1,1,1,1,1,1,1,1,1,1,
  ISYM=1,
 &END
 2.297314868984109    1    1    1    1
 -1.280100216094742e-11    1    1    2    1
 2.29810525187455    1    1    2    2
 -0.1972485874601659    1    1    3    1
 7.600253434415782e-13    1    1    3    2
 0.8266121208084832    1    1    3    3
 -1.907085681865026e-12    1    1    4    1
 0.1860320476044185    1    1    4    2
 1.210252384420407e-12    1    1    4    3
 0.6642032910463457    1    1    4    4
 0.07245514677745182    1    1    5    1
 -1.324223120480889e-13    1    1    5    2
 0.09418158918489315    1    1    5    3
 -1.769377830015961e-12    1    1    5    4
 0.6917933580498959    1    1    5    5
 0.6782868611030455    1    1    6    6
 0.6782868611030457    1    1    7    7
 -1.531036148555431e-12    1    1    8    6
 6.725744093605268e-13    1    1    8    7
 0.6177238411313611    1    1    8    8
 -6.721227307354694e-13    1    1    9    6
 -1.531403476251469e-12    1    1    9    7
 0.617723841131361    1    1    9    9
 1.258309930318897e-12    1    1   10    1
 -0.1178904699042991    1    1   10    2
 -9.45567409094128e-13    1    1   10    3
 -0.1351944166414454    1    1   10    4
 -7.56478213403966e-14    1    1   10    5
 0.4236135479748366    1    1   10   10
 0.01083112351732348    1    1   11    1
 -1.230483813799421e-13    1    1   11    2
 -0.1025241909820166    1    1   11    3
 2.235507785830482e-13    1    1   11    4
 -0.1666561150913978    1    1   11    5
 -2.887256406181038e-13    1    1   11   10
 0.4955300041437991    1    1   11   11
 0.2228223212575746    1    1   12    6
 0.07915985175076266    1    1   12    7
 -7.613408059374549e-13    1    1   12    8
 -7.170867632327882e-13    1    1   12    9
 0.590461850212638    1    1   12   12
 -0.07915985175076308    1    1   13    6
 0.2228223212575747    1    1   13    7
 7.166098226971118e-13    1    1   13    8
 -7.619803225888955e-13    1    1   13    9
 0.5904618502126391    1    1   13   13
 -0.1634733452261665    1    1   14    1
 5.230711697112866e-13    1    1   14    2
 0.1388608346439776    1    1   14    3
 1.286652858908943e-12    1    1   14    4
 -0.1564171655979628    1    1   14    5
 -6.953344150462115e-13    1    1   14   10
 -0.008904710361425835    1    1   14   11
 0.5716545140566012    1    1   14   14
 1.379493638969194e-12    1    1   15    6
 6.408255545133079e-14    1    1   15    7
 -0.235878058892429    1    1   15    8
 -0.1171243390529406    1    1   15    9
 1.657954945343898e-12    1    1   15   12
 -5.029645726599072e-13    1    1   15   13
 0.6296100022804357    1    1   15   15
 -6.480078518049381e-14    1    1   16    6
 1.37875453241898e-12    1    1   16    7
 0.117124339052941    1    1   16    8
 -0.2358780588924292    1    1   16    9
 5.030994067525829e-13    1    1   16   12
 1.657602874405306e-12    1    1   16   13
 0.6296100022804356    1    1   16   16
 1.878921145189935e-13    1    1   17    1
 -0.005418822325835068    1    1   17    2
 -9.805090767089908e-13    1    1   17    3
 0.1055557578983044    1    1   17    4
 -1.733985351137779e-12    1    1   17    5
 0.1168639310065326    1    1   17   10
 9.767742170652127e-13    1    1   17   11
 1.092740481434262e-12    1    1   17   14
 0.7735672318225137    1    1   17   17
 1.778329613015724e-12    1    1   18    1
 -0.1663676078818379    1    1   18    2
 -1.267593235237952e-12    1    1   18    3
 -0.1468146572906247    1    1   18    4
 -7.446777569586338e-14    1    1   18    5
 0.163270191314977    1    1   18   10
 3.253283059612144e-13    1    1   18   11
 -1.02559800929658e-12    1    1   18   14
 0.1127850381641325    1    1   18   17
 0.5814133096472165    1    1   18   18
 -1.000577005346254e-15    1    1   19    6
 0.5950397601971245    1    1   19   19
 0.5950397601971241    1    1   20   20
 0.007851938559868104    1    1   21    6
 0.01185581974172537    1    1   21    7
 -1.616688553862655e-13    1    1   21    8
 -9.354218788448776e-13    1    1   21    9
 0.02818037788142817    1    1   21   12
 0.02117841112975705    1    1   21   13
 3.874084213151274e-13    1    1   21   15
 5.290490268095027e-13    1    1   21   16
 0.6394879963788402    1    1   21   21
 0.01185581974172502    1    1   22    6
 -0.00785193855986779    1    1   22    7
 -9.354452976118033e-13    1    1   22    8
 1.614142847161659e-13    1    1   22    9
 0.02117841112975689    1    1   22   12
 -0.02818037788142811    1    1   22   13
 5.285498601292904e-13    1    1   22   15
 -3.869370102105307e-13    1    1   22   16
 0.6394879963788402    1    1   22   22
 -1.259131687803006e-12    1    1   23   19
 2.393918396847994e-15    1    1   23   20
 0.5871208482692163    1    1   23   23
 -2.480654570646834e-15    1    1   24   19
 -1.259244444828944e-12    1    1   24   20
 0.587120848269217    1    1   24   24
 0.03274155060404634    1    1   25    1
 -1.225498110109247e-13    1    1   25    2
 -0.0167802001722627    1    1   25    3
 -9.105303316880864e-14    1    1   25    4
 0.006921364187277073    1    1   25    5
 5.316407036826121e-13    1    1   25   10
 -0.0390800050017622    1    1   25   11
 0.01168681807486715    1    1   25   14
 1.107614000517287e-12    1    1   25   17
 5.389161339408588e-13    1    1   25   18
 0.636410682528898    1    1   25   25
 -2.599637085459738e-13    1    1   26    6
 1.46972711778659e-13    1    1   26    7
 0.04206416529326328    1    1   26    8
 -0.004333684178077194    1    1   26    9
 -3.039860030362718e-13    1    1   26   12
 3.519823321695981e-13    1    1   26   13
 -0.07703169306069105    1    1   26   15
 0.04867614580801231    1    1   26   16
 7.344125307895411e-14    1    1   26   21
 1.07121256309739e-12    1    1   26   22
 0.6025970401888709    1    1   26   26
 -1.46936065745229e-13    1    1   27    6
 -2.59016766368525e-13    1    1   27    7
 0.004333684178077292    1    1   27    8
 0.04206416529326339    1    1   27    9
 -3.517186542012496e-13    1    1   27   12
 -3.041560059369175e-13    1    1   27   13
 -0.04867614580801309    1    1   27   15
 -0.07703169306069069    1    1   27   16
 1.071448485490123e-12    1    1   27   21
 -7.341349750333848e-14    1    1   27   22
 0.6025970401888709    1    1   27   27
 8.087922015063628e-13    1    1   28    1
 -0.06561327426026893    1    1   28    2
 -9.462751762723265e-13    1    1   28    3
 0.02981540011816842    1    1   28    4
 -9.005274824447351e-13    1    1   28    5
 0.02849227032202125    1    1   28   10
 1.205599856057837e-12    1    1   28   11
 7.401371182602645e-14    1    1   28   14
 0.2381596071392107    1    1   28   17
 0.1423857517822971    1    1   28   18
 -5.743738817898247e-13    1    1   28   25
 0.7819685195411336    1    1   28   28
 -1.280128984044136e-11    2    1    1    1
 1.825778873294877    2    1    2    1
 1.280342083981138e-11    2    1    2    2
 7.266884644485834e-13    2    1    3    1
 -0.2068973517289233    2    1    3    2
 -1.591175108339726e-15    2    1    3    3
 0.1786523553599304    2    1    4    1
 6.247115895603467e-13    2    1    4    2
 -0.1733816723643268    2    1    4    3
 -2.187144779522421e-14    2    1    4    4
 -1.890833833500779e-13    2    1    5    1
 0.05640398031514547    2    1    5    2
 -7.098705304131592e-15    2    1    5    3
 0.2520350299841541    2    1    5    4
 2.303951300575147e-14    2    1    5    5
 -2.868290728628292e-15    2    1    6    6
 -3.236126644434734e-15    2    1    7    7
 0.2182144568721857    2    1    8    6
 -0.09587097289129627    2    1    8    7
 1.808977772264908e-15    2    1    8    8
 0.0958709728912963    2    1    9    6
 0.218214456872186    2    1    9    7
 1.058696316377783e-15    2    1    9    9
 -0.1198119900286976    2    1   10    1
 -4.158024835901331e-13    2    1   10    2
 0.134825587777438    2    1   10    3
 5.981326545168031e-15    2    1   10    4
 0.0117658491645669    2    1   10    5
 -6.284794733246724e-15    2    1   10   10
 -8.483270526614449e-14    2    1   11    1
 0.02182388770320644    2    1   11    2
 9.862499272123015e-15    2    1   11    3
 -0.03170080390115388    2    1   11    4
 1.76632796930476e-15    2    1   11    5
 0.04105119621468413    2    1   11   10
 1.061000245994314e-15    2    1   11   11
 -9.502972749529139e-15    2    1   12    6
 -3.549047720204784e-15    2    1   12    7
 0.1073233830121104    2    1   12    8
 0.1010517163774817    2    1   12    9
 -2.370565698492193e-14    2    1   12   12
 3.558378635151738e-15    2    1   13    6
 -1.031038318957678e-14    2    1   13    7
 -0.1010517163774829    2    1   13    8
 0.1073233830121107    2    1   13    9
 -2.460905828075011e-14    2    1   13   13
 5.434092252917669e-13    2    1   14    1
 -0.1576752564706005    2    1   14    2
 1.199151997317849e-14    2    1   14    3
 -0.1834763500753887    2    1   14    4
 -1.610772062607402e-15    2    1   14    5
 0.09951888945787783    2    1   14   10
 2.86912420904839e-15    2    1   14   11
 7.802027253422938e-15    2    1   14   14
 -0.1982623150478418    2    1   15    6
 -0.009310190298960826    2    1   15    7
 -6.424999014808044e-15    2    1   15    8
 -3.354091228932946e-15    2    1   15    9
 -0.2364186298547606    2    1   15   12
 0.07169209211535391    2    1   15   13
 2.574826084359967e-14    2    1   15   15
 0.009310190298960115    2    1   16    6
 -0.1982623150478416    2    1   16    7
 3.97240833976964e-15    2    1   16    8
 -6.687738470650961e-15    2    1   16    9
 -1.321169367219855e-15    2    1   16   11
 -0.07169209211535327    2    1   16   12
 -0.2364186298547609    2    1   16   13
 2.72332070089254e-14    2    1   16   16
 -0.02343128729909031    2    1   17    1
 -7.778585786014265e-14    2    1   17    2
 0.139596017359271    2    1   17    3
 -6.83329261230714e-15    2    1   17    4
 0.2488381852394773    2    1   17    5
 1.094387226257291e-15    2    1   17    7
 9.894862706971708e-15    2    1   17   10
 -0.1379903721438395    2    1   17   11
 1.208278749277949e-15    2    1   17   13
 -0.1542951546567786    2    1   17   14
 1.273460503714574e-14    2    1   17   17
 -0.1698584909683214    2    1   18    1
 -5.906129873904133e-13    2    1   18    2
 0.1801584261288336    2    1   18    3
 5.141937223229753e-15    2    1   18    4
 0.01056618586295822    2    1   18    5
 -1.18323319892033e-14    2    1   18   10
 -0.04483998720324663    2    1   18   11
 0.1476313972007028    2    1   18   14
 1.175275154974287e-15    2    1   18   17
 1.043774641511576e-15    2    1   19    3
 1.460268440429765e-15    2    1   19    8
 1.118659242795904e-15    2    1   19   16
 -4.98212582300539e-15    2    1   19   19
 -5.047828474658012e-15    2    1   20   20
 0.02306340753964379    2    1   21    8
 0.1335508181235005    2    1   21    9
 -2.24234693313452e-15    2    1   21   12
 -1.542169170143382e-15    2    1   21   13
 -0.05547203450994624    2    1   21   15
 -0.07578040874854437    2    1   21   16
 0.1335508181235003    2    1   22    8
 -0.02306340753964326    2    1   22    9
 -2.146720301521294e-15    2    1   22   12
 1.994931997373328e-15    2    1   22   13
 -0.07578040874854412    2    1   22   15
 0.05547203450994576    2    1   22   16
 -1.040811380414375e-15    2    1   23   18
 0.1796447792140053    2    1   23   19
 -0.000341683705797206    2    1   23   20
 -2.629001038012215e-15    2    1   23   22
 6.078471059822732e-15    2    1   23   23
 0.0003416837057972511    2    1   24   19
 0.1796447792140057    2    1   24   20
 -1.257107839193891e-15    2    1   24   22
 6.103841390658893e-15    2    1   24   24
 -1.158744256687765e-13    2    1   25    1
 0.0344105978401695    2    1   25    2
 -6.626643678231403e-15    2    1   25    3
 0.01292140499656339    2    1   25    4
 -4.133412362383737e-15    2    1   25    5
 -0.07611733374998216    2    1   25   10
 1.028691021254246e-15    2    1   25   11
 -1.064252852511771e-14    2    1   25   14
 -0.1593692800399997    2    1   25   17
 -0.07759233226296811    2    1   25   18
 -3.413935800722357e-15    2    1   25   25
 0.03691049272204498    2    1   26    6
 -0.02096818148839254    2    1   26    7
 0.04291652442504605    2    1   26   12
 -0.04964602092051394    2    1   26   13
 -1.833060613021242e-15    2    1   26   15
 2.078198724220215e-15    2    1   26   16
 -2.429156175246071e-15    2    1   26   19
 -1.137848487254782e-15    2    1   26   20
 -0.01045886801070562    2    1   26   21
 -0.152794735969472    2    1   26   22
 2.858824288409778e-15    2    1   26   26
 0.02096818148839356    2    1   27    6
 0.03691049272204473    2    1   27    7
 0.0496460209205144    2    1   27   12
 0.04291652442504573    2    1   27   13
 -2.171223270619471e-15    2    1   27   15
 -3.406996906818449e-15    2    1   27   16
 -0.1527947359694718    2    1   27   21
 0.01045886801070606    2    1   27   22
 2.05391259555654e-15    2    1   27   27
 -0.08251937725141104    2    1   28    1
 -2.892980722601218e-13    2    1   28    2
 0.1350351214836322    2    1   28    3
 -8.198736828335385e-15    2    1   28    4
 0.1283099907543891    2    1   28    5
 8.814997343176145e-15    2    1   28   10
 -0.171599381286426    2    1   28   11
 -0.008967408719572103    2    1   28   14
 -4.510281037539698e-15    2    1   28   17
 -1.120631365481017e-15    2    1   28   18
 0.08086944374833203    2    1   28   25
 8.271161533457416e-15    2    1   28   28
 2.298105251874548    2    2    1    1
 1.280334464072745e-11    2    2    2    1
 2.298896202667648    2    2    2    2
 -0.1973808695861047    2    2    3    1
 -2.141962226077238e-12    2    2    3    2
 0.8265517813822506    2    2    3    3
 5.980383933023008e-13    2    2    4    1
 0.1861374108899429    2    2    4    2
 -1.221162927722563e-12    2    2    4    3
 0.664261824446999    2    2    4    4
 0.07247956076168426    2    2    5    1
 6.587006059956962e-13    2    2    5    2
 0.09412028252670586    2    2    5    3
 1.765105856615934e-12    2    2    5    4
 0.6918177539200822    2    2    5    5
 0.6782845836086856    2    2    6    6
 0.6782845836086856    2    2    7    7
 1.529289715695992e-12    2    2    8    6
 -6.7196508773959e-13    2    2    8    7
 0.6177476313264488    2    2    8    8
 6.724055990822708e-13    2    2    9    6
 1.528906341807801e-12    2    2    9    7
 0.6177476313264487    2    2    9    9
 -4.223493977511053e-13    2    2   10    1
 -0.1179667339445286    2    2   10    2
 9.448388252342177e-13    2    2   10    3
 -0.1352072271321755    2    2   10    4
 8.943713825093624e-14    2    2   10    5
 0.4236245406880261    2    2   10   10
 0.01085143484300634    2    2   11    1
 1.831316131725713e-13    2    2   11    2
 -0.1024973899923438    2    2   11    3
 -2.210297916915849e-13    2    2   11    4
 -0.1666472891732757    2    2   11    5
 2.88113283231084e-13    2    2   11   10
 0.4955179206617702    2    2   11   11
 0.2228360658074909    2    2   12    6
 0.07916473463918969    2    2   12    7
 7.438334887269193e-13    2    2   12    8
 7.001066393286237e-13    2    2   12    9
 0.5904790658121427    2    2   12   12
 -0.07916473463919012    2    2   13    6
 0.222836065807491    2    2   13    7
 -7.006099259770915e-13    2    2   13    8
 7.431850274075558e-13    2    2   13    9
 0.590479065812144    2    2   13   13
 -0.1635662075975653    2    2   14    1
 -1.68823716941921e-12    2    2   14    2
 0.1388730006973575    2    2   14    3
 -1.286264280850324e-12    2    2   14    4
 -0.1564678423830041    2    2   14    5
 7.009020100423591e-13    2    2   14   10
 -0.008875374170356989    2    2   14   11
 0.5716931466068477    2    2   14   14
 -1.401090384662261e-12    2    2   15    6
 -6.650020432322906e-14    2    2   15    7
 -0.2359042211250371    2    2   15    8
 -0.1171373298084894    2    2   15    9
 -1.657737901621494e-12    2    2   15   12
 5.024928498471859e-13    2    2   15   13
 0.6296503351330344    2    2   15   15
 6.577549648608544e-14    2    2   16    6
 -1.401709694495712e-12    2    2   16    7
 0.1171373298084897    2    2   16    8
 -0.2359042211250374    2    2   16    9
 -5.02304686560151e-13    2    2   16   12
 -1.657845302011074e-12    2    2   16   13
 0.6296503351330345    2    2   16   16
 -1.406810459141442e-13    2    2   17    1
 -0.005445807694780767    2    2   17    2
 9.77204428487255e-13    2    2   17    3
 0.1055991167858352    2    2   17    4
 1.75560434245714e-12    2    2   17    5
 0.11684894310264    2    2   17   10
 -9.583445148564351e-13    2    2   17   11
 -1.07103562130284e-12    2    2   17   14
 0.7736043823166247    2    2   17   17
 -6.02132696459444e-13    2    2   18    1
 -0.1664738575383896    2    2   18    2
 1.25817672252948e-12    2    2   18    3
 -0.1468375207902047    2    2   18    4
 7.441313190637011e-14    2    2   18    5
 0.163277365610262    2    2   18   10
 -3.043502949662269e-13    2    2   18   11
 1.042210588664272e-12    2    2   18   14
 0.1127649388441473    2    2   18   17
 0.5814199138846047    2    2   18   18
 0.5950245521966144    2    2   19   19
 0.5950245521966142    2    2   20   20
 0.007881441716203273    2    2   21    6
 0.01190036722521045    2    2   21    7
 1.617863829017629e-13    2    2   21    8
 9.375469151029492e-13    2    2   21    9
 0.02820811576796571    2    2   21   12
 0.0211992569951828    2    2   21   13
 -3.906378259060928e-13    2    2   21   15
 -5.33816046921487e-13    2    2   21   16
 0.6394761000475826    2    2   21   21
 0.01190036722521009    2    2   22    6
 -0.007881441716202937    2    2   22    7
 9.375204605699405e-13    2    2   22    8
 -1.620201368901508e-13    2    2   22    9
 0.02119925699518262    2    2   22   12
 -0.02820811576796564    2    2   22   13
 -5.343438365390529e-13    2    2   22   15
 3.910864687650673e-13    2    2   22   16
 0.6394761000475826    2    2   22   22
 1.260047621798321e-12    2    2   23   19
 -2.393918396847994e-15    2    2   23   20
 0.5871199838126469    2    2   23   23
 2.317590563905014e-15    2    2   24   19
 1.259984304391448e-12    2    2   24   20
 0.5871199838126473    2    2   24   24
 0.03276139234706745    2    2   25    1
 3.60075955597311e-13    2    2   25    2
 -0.01683201388833235    2    2   25    3
 9.00234747858164e-14    2    2   25    4
 0.006876147402376285    2    2   25    5
 -5.348048393027938e-13    2    2   25   10
 -0.03905540758627237    2    2   25   11
 0.01168715766537564    2    2   25   14
 -1.127375970355615e-12    2    2   25   17
 -5.500044863993026e-13    2    2   25   18
 0.6364012342553946    2    2   25   25
 2.577092185485075e-13    2    2   26    6
 -1.470976118689293e-13    2    2   26    7
 0.04204502771244186    2    2   26    8
 -0.004331712518099307    2    2   26    9
 2.980289626197674e-13    2    2   26   12
 -3.443842433448197e-13    2    2   26   13
 -0.07702539371721207    2    2   26   15
 0.04867216526767245    2    2   26   16
 -7.323308626183689e-14    2    2   26   21
 -1.071365218763276e-12    2    2   26   22
 0.6025986794002718    2    2   26   26
 1.471340410619248e-13    2    2   27    6
 2.586368619272861e-13    2    2   27    7
 0.004331712518099367    2    2   27    8
 0.04204502771244194    2    2   27    9
 3.446054205880067e-13    2    2   27   12
 2.977791624392268e-13    2    2   27   13
 -0.0486721652676733    2    2   27   15
 -0.07702539371721176    2    2   27   16
 -1.071073785219312e-12    2    2   27   21
 7.320533068622126e-14    2    2   27   22
 0.6025986794002717    2    2   27   27
 -3.487320702393396e-13    2    2   28    1
 -0.06567788453758466    2    2   28    2
 9.473758583178338e-13    2    2   28    3
 0.02981886026304304    2    2   28    4
 8.991058765561721e-13    2    2   28    5
 0.02848346548524391    2    2   28   10
 -1.199497098869351e-12    2    2   28   11
 -5.190292640122607e-14    2    2   28   14
 0.2381610441356191    2    2   28   17
 0.1423688244100029    2    2   28   18
 5.6081528310159e-13    2    2   28   25
 0.7819815818902279    2    2   28   28
 -0.1972485874601659    3    1    1    1
 7.267048848175406e-13    3    1    2    1
 -0.1973808695861048    3    1    2    2
 0.03545603950868309    3    1    3    1
 0.005223273396221259    3    1    3    3
 1.789167617686826e-13    3    1    4    1
 -0.02535484252561625    3    1    4    2
 -3.120469377684842e-14    3    1    4    3
 -0.0129002393180707    3    1    4    4
 -0.002749870747409197    3    1    5    1
 1.140509534687181e-15    3    1    5    2
 0.008822487763561364    3    1    5    3
 5.248499389005207e-14    3    1    5    4
 -0.0081999492175633    3    1    5    5
 -0.000175078404892094    3    1    6    6
 -0.0001750784048920959    3    1    7    7
 2.659496429503749e-14    3    1    8    6
 -1.169417752737434e-14    3    1    8    7
 -0.004269745526690635    3    1    8    8
 1.167823636730701e-14    3    1    9    6
 2.659099340458076e-14    3    1    9    7
 -0.004269745526690634    3    1    9    9
 -1.427084714188631e-13    3    1   10    1
 0.02033239154645363    3    1   10    2
 1.650532127964698e-14    3    1   10    3
 0.003108916724088891    3    1   10    4
 -6.27842843361516e-15    3    1   10    5
 -0.002595230348936636    3    1   10   10
 -0.008211614262383461    3    1   11    1
 -0.00255920490167753    3    1   11    3
 -8.64581437042336e-15    3    1   11    4
 0.0006810398145285983    3    1   11    5
 8.790955160001279e-15    3    1   11   10
 0.0001953332798264554    3    1   11   11
 -0.003012385057492035    3    1   12    6
 -0.001070179833068121    3    1   12    7
 1.617721798533034e-14    3    1   12    8
 1.521598636206132e-14    3    1   12    9
 -0.003809286937583784    3    1   12   12
 0.001070179833068126    3    1   13    6
 -0.003012385057492034    3    1   13    7
 -1.521248811598916e-14    3    1   13    8
 1.616943883474276e-14    3    1   13    9
 -0.003809286937583804    3    1   13   13
 0.02178351194270524    3    1   14    1
 -0.003989616018156994    3    1   14    3
 -4.52347188162729e-14    3    1   14    4
 0.01069384825863673    3    1   14    5
 2.016093590901172e-14    3    1   14   10
 -0.00542877037659241    3    1   14   11
 -0.009438730523593663    3    1   14   14
 -2.771009714614141e-14    3    1   15    6
 -1.294135900330694e-15    3    1   15    7
 0.005023882035408119    3    1   15    8
 0.002494589219701294    3    1   15    9
 -3.557147811576082e-14    3    1   15   12
 1.078063216496984e-14    3    1   15   13
 -0.007906271726491394    3    1   15   15
 1.30083762500937e-15    3    1   16    6
 -2.772143679972278e-14    3    1   16    7
 -0.002494589219701294    3    1   16    8
 0.005023882035408119    3    1   16    9
 -1.078739826415251e-14    3    1   16   12
 -3.556649332686623e-14    3    1   16   13
 -0.007906271726491387    3    1   16   16
 -8.754375155436486e-14    3    1   17    1
 0.01277703641000277    3    1   17    2
 2.017371594211989e-15    3    1   17    3
 -0.00991450541113083    3    1   17    4
 4.438966453798338e-14    3    1   17    5
 0.002582321977095701    3    1   17   10
 -2.186750062169e-14    3    1   17   11
 -3.885406875251719e-14    3    1   17   14
 -0.01089643104574687    3    1   17   17
 -1.992006919438334e-13    3    1   18    1
 0.02837475387800929    3    1   18    2
 2.037373769041631e-14    3    1   18    3
 0.005217106895575651    3    1   18    4
 -1.178155744621309e-14    3    1   18    5
 -0.002108100106135739    3    1   18   10
 2.607972431761807e-14    3    1   18   14
 0.003230533743377745    3    1   18   17
 -0.002330966961992723    3    1   18   18
 0.002838131533218253    3    1   19   19
 0.002838131533218226    3    1   20   20
 -0.004899729248586027    3    1   21    6
 -0.007398212086299351    3    1   21    7
 4.704349838282815e-15    3    1   21    8
 2.717716730913505e-14    3    1   21    9
 -0.004922341277095507    3    1   21   12
 -0.003699289190724598    3    1   21   13
 -1.379905948349896e-14    3    1   21   15
 -1.883803985198995e-14    3    1   21   16
 -6.894232811491176e-05    3    1   21   21
 -0.00739821208629934    3    1   22    6
 0.004899729248586011    3    1   22    7
 2.717949156754232e-14    3    1   22    8
 -4.706687649217237e-15    3    1   22    9
 -0.003699289190724598    3    1   22   12
 0.00492234127709553    3    1   22   13
 -1.886892436731274e-14    3    1   22   15
 1.379395187482702e-14    3    1   22   16
 -6.894232811488412e-05    3    1   22   22
 1.455107735692796e-14    3    1   23   19
 0.0008381791107089385    3    1   23   23
 1.455290186589634e-14    3    1   24   20
 0.0008381791107089085    3    1   24   24
 -0.008004968529911375    3    1   25    1
 -1.18581690351934e-15    3    1   25    2
 0.006203174348713279    3    1   25    3
 -8.306245638132689e-15    3    1   25    4
 0.008055222610855556    3    1   25    5
 -9.283955440357594e-15    3    1   25   10
 -0.003907324383865165    3    1   25   11
 -0.001816867238831518    3    1   25   14
 -3.290521067428331e-14    3    1   25   17
 -1.135029570331625e-14    3    1   25   18
 -0.000819384016105106    3    1   25   25
 -4.998133051642602e-15    3    1   26    6
 2.842080141108455e-15    3    1   26    7
 0.003793473368586745    3    1   26    8
 -0.0003908247174949915    3    1   26    9
 -1.120129921976243e-15    3    1   26   13
 -0.001506538803873483    3    1   26   15
 0.0009519783295558724    3    1   26   16
 -1.105777795717966e-15    3    1   26   21
 -1.642913236010735e-14    3    1   26   22
 -0.0005484200905826479    3    1   26   26
 -2.863231400834342e-15    3    1   27    6
 -5.027201528326475e-15    3    1   27    7
 0.0003908247174949764    3    1   27    8
 0.003793473368586743    3    1   27    9
 1.089863740704952e-15    3    1   27   12
 -0.0009519783295558553    3    1   27   15
 -0.001506538803873489    3    1   27   16
 -1.644344382878415e-14    3    1   27   21
 1.124263442758844e-15    3    1   27   22
 -0.0005484200905826449    3    1   27   27
 -1.55646303218159e-13    3    1   28    1
 0.02253302371525868    3    1   28    2
 1.006851123742242e-14    3    1   28    3
 -0.0001916747591257359    3    1   28    4
 1.055557551088437e-14    3    1   28    5
 0.0005936741000485904    3    1   28   10
 -1.961725595335528e-14    3    1   28   11
 -6.843457007674192e-15    3    1   28   14
 -0.002994453465106402    3    1   28   17
 0.001411237040389858    3    1   28   18
 -0.00559955229466527    3    1   28   28
 7.601011003743148e-13    3    2    1    1
 -0.2068973517289233    3    2    2    1
 -2.141914461042309e-12    3    2    2    2
 0.0351082510611949    3    2    3    2
 1.851856443527405e-14    3    2    3    3
 -0.02565485640193032    3    2    4    1
 -1.787165617199508e-13    3    2    4    2
 0.008742457729443364    3    2    4    3
 -4.387440253770733e-14    3    2    4    4
 1.13261127009139e-15    3    2    5    1
 -0.003411852950233226    3    2    5    2
 3.13044674817714e-14    3    2    5    3
 -0.015046996016714    3    2    5    4
 -3.010679677567171e-14    3    2    5    5
 -0.007564657214360371    3    2    8    6
 0.003323478458417079    3    2    8    7
 -1.498772961750112e-14    3    2    8    8
 -0.003323478458417089    3    2    9    6
 -0.007564657214360378    3    2    9    7
 -1.496608961976467e-14    3    2    9    9
 0.02025768872745949    3    2   10    1
 1.418820022610462e-13    3    2   10    2
 -0.004635842914319966    3    2   10    3
 1.022322011117252e-14    3    2   10    4
 0.001699100442472904    3    2   10    5
 -8.377725054485585e-15    3    2   10   10
 -0.007749434690191075    3    2   11    2
 -9.299107165718079e-15    3    2   11    3
 0.002498492322788687    3    2   11    4
 2.47491168726445e-15    3    2   11    5
 -0.002498465075533734    3    2   11   10
 -1.012188659507717e-14    3    2   12    6
 -3.601685735678956e-15    3    2   12    7
 -0.004544655808377583    3    2   12    8
 -0.004279079329148862    3    2   12    9
 -1.227877340954789e-14    3    2   12   12
 3.59306802247359e-15    3    2   13    6
 -1.009931613164816e-14    3    2   13    7
 0.004279079329148903    3    2   13    8
 -0.00454465580837759    3    2   13    9
 -1.225393755650145e-14    3    2   13   13
 0.02203802994894459    3    2   14    2
 -1.422593190166313e-14    3    2   14    3
 0.01276016522929596    3    2   14    4
 3.790643878431518e-14    3    2   14    5
 -0.005630720942488284    3    2   14   10
 -1.926217974186628e-14    3    2   14   11
 -3.342145353871229e-14    3    2   14   14
 0.007924519467825606    3    2   15    6
 0.0003721271198486365    3    2   15    7
 1.784371041630697e-14    3    2   15    8
 8.866421560436901e-15    3    2   15    9
 0.01008997246492914    3    2   15   12
 -0.003059704879608997    3    2   15   13
 -2.872346025918214e-14    3    2   15   15
 -0.0003721271198486077    3    2   16    6
 0.007924519467825599    3    2   16    7
 -8.891050737444214e-15    3    2   16    8
 1.785143281568709e-14    3    2   16    9
 0.003059704879608966    3    2   16   12
 0.01008997246492915    3    2   16   13
 -2.877959101501432e-14    3    2   16   16
 0.01205120413834413    3    2   17    1
 8.654465456726847e-14    3    2   17    2
 -0.0005311386054402953    3    2   17    3
 -3.456839035940323e-14    3    2   17    4
 -0.01286682659062456    3    2   17    5
 8.52912033534603e-15    3    2   17   10
 0.006295935959390118    3    2   17   11
 0.01114247547584018    3    2   17   14
 -3.89386873439479e-14    3    2   17   17
 0.02823679993942537    3    2   18    1
 1.977109528425756e-13    3    2   18    2
 -0.005705059316523815    3    2   18    3
 1.777361759288873e-14    3    2   18    4
 0.00336923727958462    3    2   18    5
 -6.85763295107944e-15    3    2   18   10
 -0.0001705710343510216    3    2   18   11
 -0.00729470390710393    3    2   18   14
 1.12626379576708e-14    3    2   18   17
 -8.007646195434814e-15    3    2   18   18
 1.006508244805193e-14    3    2   19   19