 &FCI NORB=  14,NELEC=20,MS2=0,
  ORBSYM=1,1,1,1,1,1,1,1,1,1,1,1,1,1,
  ISYM=1,
 &END
 10.1874841814163    1    1    1    1
 -1.323443761937838    1    1    2    1
 3.036552429657802    1    1    2    2
 -0.0424842827457397    1    1    3    1
 0.002845229972363878    1    1    3    2
 3.049474719817963    1    1    3    3
 2.249110091740588e-15    1    1    4    1
 3.050157268652605    1    1    4    4
 2.127085595061416e-15    1    1    5    1
 3.050157268652607    1    1    5    5
 0.06870932812370105    1    1    6    1
 -0.0988030627929251    1    1    6    2
 0.114062954298594    1    1    6    3
 -6.518127664764326e-15    1    1    6    4
 -5.171335434420439e-15    1    1    6    5
 0.5481013604714454    1    1    6    6
 0.2942597781330037    1    1    7    1
 -0.3874565526341916    1    1    7    2
 -0.05214955815844648    1    1    7    3
 3.00609397060302e-15    1    1    7    4
 2.345943223042468e-15    1    1    7    5
 0.04745067781191864    1    1    7    6
 0.7368402977048311    1    1    7    7
 -1.47331577441274e-14    1    1    8    3
 -0.3528561506301366    1    1    8    4
 0.07762548801330067    1    1    8    5
 0.671679841491012    1    1    8    8
 -2.184494683278496e-14    1    1    9    3
 -0.07762548801330162    1    1    9    4
 -0.3528561506301367    1    1    9    5
 0.6716798414910116    1    1    9    9
 -0.01525620856447978    1    1   10    1
 0.02937895500851585    1    1   10    2
 -0.3937452530279388    1    1   10    3
 2.050047037433096e-14    1    1   10    4
 1.948671177130878e-14    1    1   10    5
 -0.06030777975315248    1    1   10    6
 0.02360394289963853    1    1   10    7
 0.7239574381880072    1    1   10   10
 -0.05901241137273332    1    1   11    1
 0.081601365370712    1    1   11    2
 -0.1172759442163351    1    1   11    3
 6.113105376789433e-15    1    1   11    4
 5.811653920104013e-15    1    1   11    5
 -0.04713843842750145    1    1   11    6
 -0.04644154571703999    1    1   11    7
 0.1109581941286593    1    1   11   10
 0.2796769098367519    1    1   11   11
 3.672743324740847e-15    1    1   12    3
 0.193632961087398    1    1   12    4
 -0.1317957435349037    1    1   12    5
 -0.1865773889673021    1    1   12    8
 0.07475438895409567    1    1   12    9
 0.391057679238269    1    1   12   12
 1.673661263547202e-14    1    1   13    3
 0.1317957435349047    1    1   13    4
 0.193632961087401    1    1   13    5
 -0.07475438895409581    1    1   13    8
 -0.1865773889673039    1    1   13    9
 0.3910576792382712    1    1   13   13
 0.08551144478914668    1    1   14    1
 -0.12174184379506    1    1   14    2
 0.03949717337821355    1    1   14    3
 -2.332529539439197e-15    1    1   14    4
 -1.528876846800419e-15    1    1   14    5
 0.01414092634141109    1    1   14    6
 0.1219007169145926    1    1   14    7
 -0.0591574415258378    1    1   14   10
 -0.03953602150529346    1    1   14   11
 0.3115061241118663    1    1   14   14
 -1.323443761937837    2    1    1    1
 0.2893962979260603    2    1    2    1
 -0.1029240572303809    2    1    2    2
 0.005406631859483692    2    1    3    1
 -0.00572710426110824    2    1    3    2
 -0.06268737256059473    2    1    3    3
 -0.06238662382146987    2    1    4    4
 -0.06238662382146989    2    1    5    5
 -0.01545309350847334    2    1    6    1
 0.005399549108633128    2    1    6    2
 -0.0035930139787909    2    1    6    3
 -0.0001937810352907509    2    1    6    6
 -0.06521335922776947    2    1    7    1
 0.02357728594125442    2    1    7    2
 0.002862490729736329    2    1    7    3
 -0.001124219223906564    2    1    7    6
 -0.005521187848642004    2    1    7    7
 0.01333544566444407    2    1    8    4
 -0.002933689764876434    2    1    8    5
 -0.002988075321728234    2    1    8    8
 0.002933689764876454    2    1    9    4
 0.01333544566444406    2    1    9    5
 -0.002988075321728231    2    1    9    9
 0.004367728032929986    2    1   10    1
 -0.001060225025568418    2    1   10    2
 0.01508728890099362    2    1   10    3
 0.0009600875084572962    2    1   10    6
 -0.0004940085015657342    2    1   10    7
 -0.003729832178332491    2    1   10   10
 0.0133829607474483    2    1   11    1
 -0.00467322718340559    2    1   11    2
 0.00429794409149121    2    1   11    3
 0.0004861970127446773    2    1   11    6
 0.0008785897700256197    2    1   11    7
 -0.001124948603131448    2    1   11   10
 -0.0004656033075378371    2    1   11   11
 -0.007525573348238373    2    1   12    4
 0.005122260845403561    2    1   12    5
 0.001910193882724991    2    1   12    8
 -0.000765341273545119    2    1   12    9
 -0.001324485630874889    2    1   12   12
 -0.005122260845403593    2    1   13    4
 -0.00752557334823847    2    1   13    5
 0.0007653412735451247    2    1   13    8
 0.001910193882725014    2    1   13    9
 -0.001324485630874918    2    1   13   13
 -0.01898762124017245    2    1   14    1
 0.006771061580707806    2    1   14    2
 -0.001340191762843326    2    1   14    3
 -0.000459369219708534    2    1   14    6
 -0.001472776419041124    2    1   14    7
 0.0003970629429881417    2    1   14   10
 0.0004217433033416594    2    1   14   11
 -0.0004615550758066659    2    1   14   14
 3.0365524296578    2    2    1    1
 -0.1029240572303808    2    2    2    1
 2.132053150840609    2    2    2    2
 -0.01185916356959046    2    2    3    1
 -0.02722598977431044    2    2    3    2
 2.171013590968516    2    2    3    3
 1.430757353537517e-15    2    2    4    2
 2.173006410364385    2    2    4    4
 1.35497361236413e-15    2    2    5    2
 2.173006410364386    2    2    5    5
 0.004775259086070266    2    2    6    1
 -0.05200445832487045    2    2    6    2
 0.06399015322896956    2    2    6    3
 -3.714808555786956e-15    2    2    6    4
 -2.830414278159199e-15    2    2    6    5
 0.5468111341449374    2    2    6    6
 0.02279952581549566    2    2    7    1
 -0.1907533098346273    2    2    7    2
 -0.02432548252763014    2    2    7    3
 1.467723162436106e-15    2    2    7    4
 1.03684399702774e-15    2    2    7    5
 0.03840059897818984    2    2    7    6
 0.6907599524556782    2    2    7    7
 -7.520889997698067e-15    2    2    8    3
 -0.1801405123242296    2    2    8    4
 0.03962945000437806    2    2    8    5
 0.6344030794034637    2    2    8    8
 -1.115053247914381e-14    2    2    9    3
 -0.03962945000437872    2    2    9    4
 -0.1801405123242299    2    2    9    5
 0.6344030794034631    2    2    9    9
 0.0008513874419247972    2    2   10    1
 0.01593245409215919    2    2   10    2
 -0.1988583705217465    2    2   10    3
 1.030183299644295e-14    2    2   10    4
 9.786605158197689e-15    2    2   10    5
 -0.04820728652924666    2    2   10    6
 0.01713637174126992    2    2   10    7
 0.6775657799095383    2    2   10   10
 -0.003989130655231242    2    2   11    1
 0.04113222928709812    2    2   11    2
 -0.06006615734254354    2    2   11    3
 3.10764431997335e-15    2    2   11    4
 2.961310962333368e-15    2    2   11    5
 -0.04195308613345817    2    2   11    6
 -0.03975801673256631    2    2   11    7
 0.09701004371553262    2    2   11   10
 0.2747318585244671    2    2   11   11
 1.839178929102688e-15    2    2   12    3
 0.09699039264623152    2    2   12    4
 -0.06601624456273567    2    2   12    5
 -0.1628424816833641    2    2   12    8
 0.06524472381882122    2    2   12    9
 0.3747342016485871    2    2   12   12
 8.383929534396766e-15    2    2   13    3
 0.06601624456273621    2    2   13    4
 0.0969903926462332    2    2   13    5
 -0.06524472381882122    2    2   13    8
 -0.1628424816833655    2    2   13    9
 0.3747342016485888    2    2   13   13
 0.006619319570177008    2    2   14    1
 -0.0637575131464853    2    2   14    2
 0.01986625812399706    2    2   14    3
 -1.21447730434068e-15    2    2   14    4
 0.009777873891207387    2    2   14    6
 0.109876549551386    2    2   14    7
 -0.0543499561250735    2    2   14   10
 -0.03546816912512694    2    2   14   11
 0.3074965633180065    2    2   14   14
 -0.0424842827457397    3    1    1    1
 0.005406631859483696    3    1    2    1
 -0.01185916356959047    3    1    2    2
 0.1271893625441793    3    1    3    1
 0.1378058870051007    3    1    3    2
 0.007001577125027757    3    1    3    3
 -0.001935350735184507    3    1    4    4
 -0.001935350735184508    3    1    5    5
 0.007508596094507754    3    1    6    1
 0.00657104391336064    3    1    6    2
 -0.004674935785751236    3    1    6    3
 -0.01084815471747517    3    1    6    6
 -0.004937780915070125    3    1    7    1
 -0.0006275331145241867    3    1    7    2
 -0.02283446693622266    3    1    7    3
 -0.001448625572229491    3    1    7    6
 0.002599074344748791    3    1    7    7
 -1.140845409543385e-15    3    1    8    1
 0.0003388838532068381    3    1    8    4
 -7.455169603259293e-05    3    1    8    5
 -0.0007256704927372351    3    1    8    8
 -1.691699227497551e-15    3    1    9    1
 -1.14097263777864e-15    3    1    9    2
 7.455169603259236e-05    3    1    9    4
 0.0003388838532068364    3    1    9    5
 -0.000725670492737249    3    1    9    9
 -0.03094319550836438    3    1   10    1
 -0.02063921727077243    3    1   10    2
 0.001225240512363818    3    1   10    3
 0.002019333217608599    3    1   10    6
 0.01401717565744474    3    1   10    7
 -5.413151959189058e-05    3    1   10   10
 -0.008967927997460177    3    1   11    1
 -0.006493403272414391    3    1   11    2
 0.004318487016155554    3    1   11    3
 0.001753846201890866    3    1   11    6
 0.003332847791791156    3    1   11    7
 -0.001798710751965021    3    1   11   10
 -0.002931469628855373    3    1   11   11
 -0.0005860404468201134    3    1   12    4
 0.000398886821729291    3    1   12    5
 -0.00131975232593977    3    1   12    8
 0.0005287740344231274    3    1   12    9
 -0.0006708411110411686    3    1   12   12
 1.335526518826989e-15    3    1   13    1
 -0.0003988868217292929    3    1   13    4
 -0.0005860404468201168    3    1   13    5
 -0.0005287740344231264    3    1   13    8
 -0.001319752325939769    3    1   13    9
 -0.0006708411110411565    3    1   13   13
 0.003059563940046354    3    1   14    1
 0.002672455916763778    3    1   14    2
 -0.007307059923083048    3    1   14    3
 -0.0004922881354038908    3    1   14    6
 -0.001372251162510083    3    1   14    7
 0.003942332254447258    3    1   14   10
 0.0007474516201208069    3    1   14   11
 -0.001231409205415692    3    1   14   14
 0.002845229972363848    3    2    1    1
 -0.005727104261108235    3    2    2    1
 -0.02722598977431041    3    2    2    2
 0.1378058870051007    3    2    3    1
 0.4398710717200474    3    2    3    2
 0.02266283829060839    3    2    3    3
 0.002399570960827454    3    2    4    4
 0.002399570960827462    3    2    5    5
 0.008430158111489883    3    2    6    1
 0.01541467549202421    3    2    6    2
 -0.008574502826812422    3    2    6    3
 -0.06820595173360905    3    2    6    6
 -0.002589741247253149    3    2    7    1
 -0.003159447833226379    3    2    7    2
 -0.050999019545511    3    2    7    3
 -0.003842244474348967    3    2    7    6
 0.0140800106911076    3    2    7    7
 -1.169179507103992e-15    3    2    8    1
 -1.614822627375163e-15    3    2    8    2
 -0.0005600450618243126    3    2    8    4
 0.0001232053661411718    3    2    8    5
 2.800489504552503e-15    3    2    8    7
 -0.003912103145666833    3    2    8    8
 -1.733582313912893e-15    3    2    9    1
 -2.394290354230668e-15    3    2    9    2
 -0.0001232053661411808    3    2    9    4
 -0.000560045061824323    3    2    9    5
 4.149930113653282e-15    3    2    9    7
 -0.003912103145666924    3    2    9    9
 -0.03170434922442379    3    2   10    1
 -0.04240091074633006    3    2   10    2
 0.003448025481443954    3    2   10    3
 0.007817118621345038    3    2   10    6
 0.06998329035719965    3    2   10    7
 0.002191336686110335    3    2   10   10
 -0.009641349194579941    3    2   11    1
 -0.01304893205923932    3    2   11    2
 0.009058688716611273    3    2   11    3
 0.008733616763245409    3    2   11    6
 0.0154338088891668    3    2   11    7
 -0.007008232129191295    3    2   11   10
 -0.01648147218351592    3    2   11   11
 -0.001761739765578751    3    2   12    4
 0.001199123336313881    3    2   12    5
 -0.009150923546075834    3    2   12    8
 0.003666423363725098    3    2   12    9
 -0.003969050147816284    3    2   12   12
 1.359274071266735e-15    3    2   13    1
 1.750652243000434e-15    3    2   13    2
 -0.001199123336313884    3    2   13    4
 -0.00176173976557875    3    2   13    5
 -2.550495714833585e-15    3    2   13    7
 -0.003666423363725093    3    2   13    8
 -0.009150923546075837    3    2   13    9
 -0.003969050147816198    3    2   13   13
 0.003798465431964517    3    2   14    1
 0.004759791810107789    3    2   14    2
 -0.0184612729839745    3    2   14    3
 -0.0008437330026750146    3    2   14    6
 -0.006742799921238568    3    2   14    7
 1.00525566653852e-15    3    2   14    9
 0.01928219832083744    3    2   14   10
 0.002406858922628259    3    2   14   11
 -1.05913023601224e-15    3    2   14   13
 -0.006498625230700582    3    2   14   14
 3.049474719817963    3    3    1    1
 -0.06268737256059523    3    3    2    1
 2.171013590968516    3    3    2    2
 0.00700157712502775    3    3    3    1
 0.02266283829060839    3    3    3    2
 2.413386271194375    3    3    3    3
 2.153654069330539    3    3    4    4
 2.153654069330539    3    3    5    5
 0.003647429878297484    3    3    6    1
 -0.05113440644571244    3    3    6    2
 0.07342503002552782    3    3    6    3
 -3.668673943209598e-15    3    3    6    4
 -2.794278308427599e-15    3    3    6    5
 0.5505360277400848    3    3    6    6
 0.01270404863512469    3    3    7    1
 -0.2001583002700159    3    3    7    2
 -0.03457165766059961    3    3    7    3
 1.649825332152873e-15    3    3    7    4
 1.212171777459674e-15    3    3    7    5
 0.03704388375256718    3    3    7    6
 0.6936431267556376    3    3    7    7
 -8.884438246291655e-15    3    3    8    3
 -0.182851934440401    3    3    8    4
 0.04022594085370011    3    3    8    5
 0.6297078988960942    3    3    8    8
 -1.317265896342181e-14    3    3    9    3
 -0.04022594085370067    3    3    9    4
 -0.1828519344404011    3    3    9    5
 0.6297078988960936    3    3    9    9
 -0.002641011478426714    3    3   10    1
 0.01277273793771259    3    3   10    2
 -0.2350182208641836    3    3   10    3
 1.048514769478688e-14    3    3   10    4
 9.959330109179979e-15    3    3   10    5
 -0.04998621115157444    3    3   10    6
 0.029051973348047    3    3   10    7
 1.434241837358568e-15    3    3   10    9
 0.69622920819518    3    3   10   10
 -0.003269158725235015    3    3   11    1
 0.04127517755996131    3    3   11    2
 -0.06977415700413973    3    3   11    3
 3.126620182167486e-15    3    3   11    4
 2.979072846062103e-15    3    3   11    5
 -0.04307708883621145    3    3   11    6
 -0.03735883847222204    3    3   11    7
 0.1011311606306217    3    3   11   10
 0.2749951642346532    3    3   11   11
 2.174651737746203e-15    3    3   12    3
 0.09862693453143138    3    3   12    4
 -0.06713015230537756    3    3   12    5
 -0.1613589045360237    3    3   12    8
 0.06465031147480921    3    3   12    9
 0.3729758769755308    3    3   12   12
 9.915380155684753e-15    3    3   13    3
 0.06713015230537811    3    3   13    4
 0.09862693453143306    3    3   13    5
 -0.06465031147480925    3    3   13    8
 -0.1613589045360251    3    3   13    9
 0.3729758769755325    3    3   13   13
 0.004267443568156995    3    3   14    1
 -0.06659891291018796    3    3   14    2
 0.021543971068355    3    3   14    3
 -1.180081288598601e-15    3    3   14    4
 0.009402492145193437    3    3   14    6
 0.1089671444177208    3    3   14    7
 -0.05388523337135365    3    3   14   10
 -0.03519639019528157    3    3   14   11
 0.3068906218343078    3    3   14   14
 2.249110091740588e-15    4    1    1    1
 0.1270638640662102    4    1    4    1
 0.1381819098169885    4    1    4    2
 0.004486524994490912    4    1    4    3
 -0.005809541997080485    4    1    6    4
 -0.0225125827229745    4    1    7    4
 -0.02731975824045317    4    1    8    1
 -0.01843149559856857    4    1    8    2
 -0.000739164064419512    4    1    8    3
 0.002755305285392111    4    1    8    6
 0.01317896824816651    4    1    8    7
 -0.006010124981620387    4    1    9    1
 -0.004054779371420457    4    1    9    2
 -0.000162610092299635    4    1    9    3
 0.0006061447902275113    4    1    9    6
 0.002899266003862459    4    1    9    7
 1.620715504621171e-15    4    1   10    1
 1.074849338982499e-15    4    1   10    2
 0.0008982033836197036    4    1   10    4
 -0.001256680907856298    4    1   10    8
 -0.0002764595957166605    4    1   10    9
 0.004580430427343241    4    1   11    4
 -0.001714632024853693    4    1   11    8
 -0.0003772051229794668    4    1   11    9
 0.01545239714766703    4    1   12    1
 0.01001948753971562    4    1   12    2
 -1.349229837416338e-05    4    1   12    3
 -0.0008034979275361568    4    1   12    6
 -0.006145384782818091    4    1   12    7
 -0.000775724618813832    4    1   12   10
 0.001575968466746481    4    1   12   11
 0.01051763170917059    4    1   13    1
 0.006819736695239106    4    1   13    2
 -9.183495858509391e-06    4    1   13    3
 -0.0005468986591626062    4    1   13    6
 -0.004182839286303249    4    1   13    7
 -0.0005279948328051024    4    1   13   10
 0.001072678611616463    4    1   13   11
 -0.006793502188812069    4    1   14    4
 0.003321402011269205    4    1   14    8
 0.000730681473321925    4    1   14    9
 -0.002341935367783418    4    1   14   12
 -0.001594031880596964    4    1   14   13
 1.430757353537514e-15    4    2    2    2
 0.1381819098169885    4    2    4    1
 0.4413171310483497    4    2    4    2
 0.01022646959640898    4    2    4    3
 -1.215769365171825e-15    4    2    4    4
 -0.01469533111707162    4    2    6    4
 3.615529093712286e-15    4    2    6    6
 -0.04907381106324961    4    2    7    4
 -0.02799731990888814    4    2    8    1
 -0.03869478922545686    4    2    8    2
 -0.001570389762033006    4    2    8    3
 0.01363798124024373    4    2    8    6
 0.0670124817239828    4    2    8    7
 -0.006159183047003253    4    2    9    1
 -0.008512539435217122    4    2    9    2
 -0.000345472996378868    4    2    9    3
 0.00300024513502062    4    2    9    6
 0.01474220185057564    4    2    9    7
 1.659499855838813e-15    4    2   10    1
 2.189965025573916e-15    4    2   10    2
 0.001652127578040947    4    2   10    4
 -3.690052067263591e-15    4    2   10    7
 -0.007605210307433387    4    2   10    8
 -0.001673084514763432    4    2   10    9
 0.01035634663060417    4    2   11    4
 -0.007471196653755534    4    2   11    8
 -0.001643602599119831    4    2   11    9
 0.01572743044305184    4    2   12    1
 0.02025777240256646    4    2   12    2
 -0.001374328189398273    4    2   12    3
 -0.002783093324773512    4    2   12    6
 -0.0294961992702025    4    2   12    7
 -0.00547650082566814    4    2   12   10
 0.008208435978401797    4    2   12   11
 0.01070483236684031    4    2   13    1
 0.01378839718797695    4    2   13    2
 -0.0009354327102448552    4    2   13    3
 -0.001894304833256146    4    2   13    6
 -0.02007650708040039    4    2   13    7
 -0.003727565256633441    4    2   13   10
 0.005587049420495209    4    2   13   11
 -0.01580961924786379    4    2   14    4
 0.01625822290313974    4    2   14    8
 0.003576677024990063    4    2   14    9
 -1.015970154588738e-15    4    2   14   10
 -0.01226155734030775    4    2   14   12
 -0.008345795351610142    4    2   14   13
 0.004486524994490912    4    3    4    1
 0.01022646959640898    4    3    4    2
 0.129763740828161    4    3    4    3
 0.005113099333703251    4    3    6    4
 -0.003384786919940047    4    3    7    4
 -0.0009173706410749042    4    3    8    1
 -0.001028752054069179    4    3    8    2
 -0.01497752042222262    4    3    8    3
 -0.002462328343700035    4    3    8    6
 0.002911055112366984    4    3    8    7
 -0.000201814092160061    4    3    9    1
 -0.0002263170986227585    4    3    9    2
 -0.003294932878250716    4    3    9    3
 -0.0005416922419727124    4    3    9    6
 0.0006404084875027887    4    3    9    7
 -0.01635885210544449    4    3   10    4
 0.01108237416629653    4    3   10    8
 0.002438032329799208    4    3   10    9
 -1.163844734838174e-15    4    3   10   10
 -0.004681565682508759    4    3   11    4
 0.002630363039501252    4    3   11    8
 0.0005786585106389709    4    3   11    9
 0.0004827467511647849    4    3   12    1
 -0.0002639740154453188    4    3   12    2
 0.00804165145467068    4    3   12    3
 0.0005119604750600433    4    3   12    6
 -0.002522518832270473    4    3   12    7
 -0.005261256173145792    4    3   12   10
 -0.001469040165412214    4    3   12   11
 0.000328580251272949    4    3   13    1
 -0.0001796731891312953    4    3   13    2
 0.005473527992160883    4    3   13    3
 0.0003484644922646561    4    3   13    6
 -0.00171694552008543    4    3   13    7
 -0.003581059574637077    4    3   13   10
 -0.0009998981567799932    4    3   13   11
 0.001157630610886794    4    3   14    4
 -0.0008106307054540188    4    3   14    8
 -0.0001783321730315929    4    3   14    9
 -9.083903251667696e-06    4    3   14   12
 -6.182933817305359e-06    4    3   14   13
 3.050157268652606    4    4    1    1
 -0.06238662382147026    4    4    2    1
 2.173006410364383    4    4    2    2
 -0.001935350735184523    4    4    3    1
 0.00239957096082746    4    4    3    2
 2.153654069330539    4    4    3    3
 -1.215769365171823e-15    4    4    4    2
 2.412986318960398    4    4    4    4
 2.154034493663466    4    4    5    5
 0.003029951624764742    4    4    6    1
 -0.05376743854912546    4    4    6    2
 0.06395109200871783    4    4    6    3
 -4.297198725126805e-15    4    4    6    4
 -2.831442384757659e-15    4    4    6    5
 0.5367150299257276    4    4    6    6
 0.01291173619188202    4    4    7    1
 -0.1994091016866974    4    4    7    2
 -0.02805600864649126    4    4    7    3
 2.041880550922904e-15    4    4    7    4
 1.225131955222176e-15    4    4    7    5
 0.03911270762983901    4    4    7    6
 0.6939201281173069    4    4    7    7
 -7.638690247258757e-15    4    4    8    3
 -0.2128747656768998    4    4    8    4
 0.04023915381410728    4    4    8    5
 0.6496481968042149    4    4    8    8
 -1.132276582799587e-14    4    4    9    3
 -0.04683071994600879    4    4    9    4
 -0.1829119955680931    4    4    9    5
 0.004399102112848375    4    4    9    8
 0.6306193068131333    4    4    9    9
 -0.0006215834584005556    4    4   10    1
 0.01351153444431341    4    4   10    2
 -0.201867265419958    4    4   10    3
 1.216195272074557e-14    4    4   10    4
 9.939360146747345e-15    4    4   10    5
 -0.04762672417416339    4    4   10    6
 0.02048321737128783    4    4   10    7
 -1.15348023248862e-15    4    4   10    8
 0.6733577604020882    4    4   10   10
 -0.002625863150021461    4    4   11    1
 0.04222965437298271    4    4   11    2
 -0.06050119066228788    4    4   11    3
 3.618965088235121e-15    4    4   11    4
 2.984004454357374e-15    4    4   11    5
 -0.04079276222815164    4    4   11    6
 -0.03939109977177338    4    4   11    7
 0.09554181837551817    4    4   11   10
 0.2730320107764042    4    4   11   11
 1.860192768214735e-15    4    4   12    3
 0.114504171505638    4    4   12    4
 -0.06712321393560472    4    4   12    5
 -0.1712649936699112    4    4   12    8
 0.06262187478736807    4    4   12    9
 0.3783590601483984    4    4   12   12
 8.518016224578694e-15    4    4   13    3
 0.07793695007650216    4    4   13    4
 0.09861674074938669    4    4   13    5
 -0.07132482566533027    4    4   13    8
 -0.163048830319692    4    4   13    9
 0.003939634497512806    4    4   13   12
 0.3752524907670755    4    4   13   13
 0.004077697923108661    4    4   14    1
 -0.06571597225478008    4    4   14    2
 0.01905373387808845    4    4   14    3
 -1.313083210713662e-15    4    4   14    4
 0.01019016525925354    4    4   14    6
 0.1102009303223327    4    4   14    7
 -0.05271003257322367    4    4   14   10
 -0.03562250919596528    4    4   14   11
 0.3072629098693136    4    4   14   14
 2.127085595061416e-15    5    1    1    1
 0.1270638640662103    5    1    5    1
 0.1381819098169885    5    1    5    2
 0.004486524994490912    5    1    5    3
 -0.005809541997080489    5    1    6    5
 -0.02251258272297451    5    1    7    5
 0.006010124981620352    5    1    8    1
 0.004054779371420392    5    1    8    2
 0.0001626100922996317    5    1    8    3
 -0.0006061447902275098    5    1    8    6
 -0.002899266003862466    5    1    8    7
 -0.02731975824045316    5    1    9    1
 -0.01843149559856857    5    1    9    2
 -0.0007391640644195138    5    1    9    3
 0.002755305285392111    5    1    9    6
 0.01317896824816649    5    1    9    7
 1.54124154114136e-15    5    1   10    1
 1.023099896671574e-15    5    1   10    2
 0.0008982033836197029    5    1   10    5
 0.0002764595957166571    5    1   10    8
 -0.001256680907856303    5    1   10    9
 0.004580430427343241    5    1   11    5
 0.0003772051229794699    5    1   11    8
 -0.001714632024853687    5    1   11    9
 -0.01051763170917052    5    1   12    1
 -0.006819736695239041    5    1   12    2
 9.183495858511644e-06    5    1   12    3
 0.0005468986591626009    5    1   12    6
 0.004182839286303226    5    1   12    7
 0.0005279948328051046    5    1   12   10
 -0.00107267861161646    5    1   12   11
 0.01545239714766723    5    1   13    1
 0.01001948753971578    5    1   13    2
 -1.349229837415767e-05    5    1   13    3
 -0.0008034979275361726    5    1   13    6
 -0.006145384782818163    5    1   13    7
 -0.0007757246188138257    5    1   13   10
 0.00157596846674649    5    1   13   11
 -0.006793502188812076    5    1   14    5
 -0.0007306814733219293    5    1   14    8
 0.003321402011269195    5    1   14    9
 0.001594031880596958    5    1   14   12
 -0.002341935367783432    5    1   14   13
 1.354973612364129e-15    5    2    2    2
 0.1381819098169886    5    2    5    1
 0.44131713104835    5    2    5    2
 0.01022646959640899    5    2    5    3
 -1.147434190083426e-15    5    2    5    5
 -0.01469533111707162    5    2    6    5
 3.407780461044744e-15    5    2    6    6
 -0.04907381106324963    5    2    7    5
 0.006159183047003206    5    2    8    1
 0.008512539435216876    5    2    8    2
 0.0003454729963788552    5    2    8    3
 -0.003000245135020612    5    2    8    6
 -0.01474220185057568    5    2    8    7
 -0.02799731990888814    5    2    9    1
 -0.03869478922545693    5    2    9    2
 -0.001570389762033016    5    2    9    3
 0.01363798124024374    5    2    9    6
 0.06701248172398278    5    2    9    7
 1.578319320641047e-15    5    2   10    1
 2.087434629353496e-15    5    2   10    2
 0.00165212757804095    5    2   10    5
 -3.506807249842653e-15    5    2   10    7
 0.001673084514763401    5    2   10    8
 -0.007605210307433424    5    2   10    9
 0.01035634663060418    5    2   11    5
 0.001643602599119852    5    2   11    8
 -0.007471196653755514    5    2   11    9
 -0.01070483236684024    5    2   12    1
 -0.01378839718797678    5    2   12    2
 0.0009354327102448594    5    2   12    3
 0.001894304833256126    5    2   12    6
 0.0200765070804003    5    2   12    7
 0.003727565256633454    5    2   12   10
 -0.005587049420495196    5    2   12   11
 0.01572743044305205    5    2   13    1
 0.02025777240256686    5    2   13    2
 -0.001374328189398261    5    2   13    3
 -0.002783093324773584    5    2   13    6
 -0.02949619927020287    5    2   13    7
 -0.005476500825668107    5    2   13   10
 0.00820843597840184    5    2   13   11
 -0.01580961924786374    5    2   14    5
 -0.003576677024990126    5    2   14    8
 0.01625822290313972    5    2   14    9
 0.008345795351610159    5    2   14   12
 -0.01226155734030785    5    2   14   13
 0.004486524994490915    5    3    5    1
 0.01022646959640899    5    3    5    2
 0.1297637408281611    5    3    5    3
 0.005113099333703254    5    3    6    5
 -0.003384786919940048    5    3    7    5
 0.0002018140921600593    5    3    8    1
 0.0002263170986227493    5    3    8    2
 0.003294932878250653    5    3    8    3
 0.0005416922419727093    5    3    8    6
 -0.0006404084875027937    5    3    8    7
 -0.0009173706410749042    5    3    9    1
 -0.001028752054069186    5    3    9    2
 -0.01497752042222264    5    3    9    3
 -0.002462328343700037    5    3    9    6
 0.002911055112366977    5    3    9    7
 1.283839870418603e-15    5    3    9    9
 -0.01635885210544451    5    3   10    5
 -0.002438032329799211    5    3   10    8
 0.01108237416629653    5    3   10    9
 -1.09286705399223e-15    5    3   10   10
 -0.004681565682508762    5    3   11    5
 -0.000578658510638972    5    3   11    8
 0.00263036303950125    5    3   11    9
 -0.0003285802512729467    5    3   12    1
 0.0001796731891312994    5    3   12    2
 -0.005473527992160833    5    3   12    3
 -0.0003484644922646523    5    3   12    6
 0.001716945520085424    5    3   12    7
 0.003581059574637061    5    3   12   10
 0.0009998981567799889    5    3   12   11
 0.0004827467511647917    5    3   13    1
 -0.0002639740154453092    5    3   13    2
 0.008041651454670822    5    3   13    3
 0.0005119604750600578    5    3   13    6
 -0.002522518832270492    5    3   13    7
 -0.005261256173145856    5    3   13   10
 -0.00146904016541223    5    3   13   11