 &FCI NORB=  24,NELEC=10,MS2=0,
  ORBSYM=1,1,1,1,1,1,1,1,1,1,1,1,1,1,1,1,1,1,1,1,1,1,1,1,
  ISYM=1,
 &END
 4.739679314947424    1    1    1    1
 -0.4310526579787894    1    1    2    1
 1.046107072372738    1    1    2    2
 1.719287147546045e-15    1    1    3    1
 -1.082467449009528e-15    1    1    3    2
 0.8787351510592079    1    1    3    3
 -0.1382178017207909    1    1    4    1
 0.08628618051868721    1    1    4    2
 0.9884703024658712    1    1    4    4
 1.038039094712348    1    1    5    5
 -0.1467224327509066    1    1    6    1
 0.2089413417634705    1    1    6    2
 1.007093713978335e-14    1    1    6    3
 -0.1003938709629866    1    1    6    4
 0.4053416346511899    1    1    6    6
 6.575157627565498e-15    1    1    7    1
 -8.321034833391749e-15    1    1    7    2
 0.2388211102500472    1    1    7    3
 4.010463836023881e-15    1    1    7    4
 0.3916588217567549    1    1    7    7
 2.197813328899678e-15    1    1    8    1
 -2.789435349370706e-15    1    1    8    2
 -0.1703552616934603    1    1    8    3
 1.023703691260813e-15    1    1    8    4
 -9.32023555555439e-15    1    1    8    6
 -0.1566963216981071    1    1    8    7
 0.5688300086981061    1    1    8    8
 0.1333564395046064    1    1    9    1
 -0.1724010532047894    1    1    9    2
 6.262351748276274e-15    1    1    9    3
 0.1581597431446919    1    1    9    4
 -0.1645337359922648    1    1    9    6
 9.837020521069606e-15    1    1    9    7
 -1.778958924614216e-15    1    1    9    8
 0.5850983389938532    1    1    9    9
 0.08561342703631561    1    1   10    1
 -0.01907180108256053    1    1   10    2
 1.921032777296716e-14    1    1   10    3
 -0.4092481207706258    1    1   10    4
 -1.744705893096657e-15    1    1   10    5
 0.08873719926691    1    1   10    6
 7.627145443001027e-15    1    1   10    7
 -8.142791996235133e-15    1    1   10    8
 -0.1259024960966035    1    1   10    9
 0.8354817071049264    1    1   10   10
 1.810738963188596e-15    1    1   11    4
 -0.5104899600264786    1    1   11    5
 0.9959517547941793    1    1   11   11
 1.033046464669028e-14    1    1   12    1
 -7.51839996510073e-15    1    1   12    2
 -0.3332117328473709    1    1   12    3
 -2.427279297695373e-14    1    1   12    4
 -7.378971565719095e-15    1    1   12    6
 -0.2149706500262256    1    1   12    7
 0.1227299188711518    1    1   12    8
 -1.123753867737776e-14    1    1   12    9
 5.129577318463419e-15    1    1   12   10
 0.7666273262067668    1    1   12   12
 0.1718979300057719    1    1   13    1
 -0.1630579128436039    1    1   13    2
 2.853620117981848e-15    1    1   13    3
 -0.09292544280706555    1    1   13    4
 -0.0734942092073429    1    1   13    6
 5.019422377738891e-15    1    1   13    7
 0.007541395281541288    1    1   13    9
 0.0544132893128106    1    1   13   10
 3.219646771412954e-15    1    1   13   12
 0.5826835915910012    1    1   13   13
 1.084528581964364e-14    1    1   14    1
 -1.024759185933715e-14    1    1   14    2
 -6.035277267063096e-15    1    1   14    4
 -4.64028308909456e-15    1    1   14    6
 3.575080981012058e-15    1    1   14   10
 3.959152651996494e-15    1    1   14   13
 0.5211361044029093    1    1   14   14
 -0.03441133998148434    1    1   15    5
 0.04738756473018459    1    1   15   11
 0.5188162868010462    1    1   15   15
 0.3042983241046668    1    1   16    1
 -0.2802742288013677    1    1   16    2
 6.970281556800684e-15    1    1   16    3
 -0.1465401634265188    1    1   16    4
 -0.1236084561816086    1    1   16    6
 1.157136452628604e-14    1    1   16    7
 -2.001003529539247e-15    1    1   16    8
 0.02415907233746309    1    1   16    9
 0.1153518068567534    1    1   16   10
 4.93875773610597e-15    1    1   16   12
 0.1147221378548513    1    1   16   13
 7.26101367425745e-15    1    1   16   14
 0.7704941877549428    1    1   16   16
 -2.127554317617186e-14    1    1   17    1
 1.967610102626693e-14    1    1   17    2
 0.0004761253411724271    1    1   17    3
 8.946619486915885e-15    1    1   17    4
 9.106430887140249e-15    1    1   17    6
 0.001277879980234542    1    1   17    7
 -0.003940654530614693    1    1   17    8
 -2.397387843799947e-15    1    1   17    9
 -6.293576770843856e-15    1    1   17   10
 -0.003441829791076705    1    1   17   12
 -8.146261443187086e-15    1    1   17   13
 -2.065361770497987e-14    1    1   17   16
 0.4677039502461685    1    1   17   17
 -2.302277563471372e-14    1    1   18    1
 2.094635229155095e-14    1    1   18    2
 0.1961355867385328    1    1   18    3
 -9.78178042038147e-15    1    1   18    4
 2.116471060908953e-14    1    1   18    6
 0.1404066607098869    1    1   18    7
 -0.2444304027060767    1    1   18    8
 -1.888419975948352e-14    1    1   18    9
 3.050684704852813e-14    1    1   18   10
 -0.2831347472774318    1    1   18   12
 -5.023759186428833e-15    1    1   18   13
 -1.863093013199091e-15    1    1   18   16
 0.007229795640261882    1    1   18   17
 0.8284938104145991    1    1   18   18
 -0.216146533348371    1    1   19    1
 0.1929686880916147    1    1   19    2
 -1.743744038051886e-14    1    1   19    3
 -0.1171876145671911    1    1   19    4
 0.1457241345406971    1    1   19    6
 -1.768702372062503e-14    1    1   19    7
 1.936298343885312e-14    1    1   19    8
 -0.2672894760350702    1    1   19    9
 0.1700917322289106    1    1   19   10
 3.124583924929425e-14    1    1   19   12
 -0.06267934360710746    1    1   19   13
 -3.856242480319475e-15    1    1   19   14
 -0.06481299392532042    1    1   19   16
 4.225786387479502e-15    1    1   19   17
 1.040834085586084e-15    1    1   19   18
 0.8262635352426793    1    1   19   19
 -0.007262651177937321    1    1   20    5
 0.005985587368614317    1    1   20   11
 -2.465042059363042e-15    1    1   20   14
 -0.1506803415229702    1    1   20   15
 0.880200169021231    1    1   20   20
 9.067424033582305e-15    1    1   21   13
 -0.1506876165281409    1    1   21   14
 2.900457651833221e-15    1    1   21   15
 0.8845520331119826    1    1   21   21
 0.003901906797694583    1    1   22    1
 -0.002443263173454248    1    1   22    2
 -0.02619404434522536    1    1   22    4
 0.004829468599872156    1    1   22    6
 -0.04442629394528669    1    1   22    9
 0.005752274533177142    1    1   22   10
 0.1488090553886891    1    1   22   13
 9.068334469078634e-15    1    1   22   14
 -0.07780060854019782    1    1   22   16
 4.600486658290492e-15    1    1   22   17
 -0.01050034248144452    1    1   22   19
 0.8701804323616411    1    1   22   22
 -0.05928445075893086    1    1   23    1
 0.06105958320299203    1    1   23    2
 6.262134907841777e-15    1    1   23    3
 -0.1000465437823627    1    1   23    4
 0.04481182238523002    1    1   23    6
 1.535447116673971e-15    1    1   23    7
 -0.05045611466798083    1    1   23    9
 0.1936958321555217    1    1   23   10
 -0.04486084928509612    1    1   23   13
 -2.751497099472579e-15    1    1   23   14
 -0.09267161918171353    1    1   23   16
 7.369105325949477e-15    1    1   23   17
 -2.92821322744885e-15    1    1   23   18
 -0.03993678103607745    1    1   23   19
 -0.006980746077783678    1    1   23   22
 0.8971989424231551    1    1   23   23
 -2.342247692999587e-15    1    1   24    1
 2.161736501610223e-15    1    1   24    2
 -0.1347343472780901    1    1   24    3
 -5.770964218651531e-15    1    1   24    4
 -0.05739975151965478    1    1   24    7
 -0.001356781578174486    1    1   24    8
 -5.048045315092509e-15    1    1   24    9
 -2.019218126037003e-15    1    1   24   10
 0.2368139695607726    1    1   24   12
 -2.782496455466799e-15    1    1   24   13
 -7.355878059445153e-15    1    1   24   16
 0.0139850037392541    1    1   24   17
 0.02122157159089419    1    1   24   18
 -5.15039400017514e-15    1    1   24   19
 -3.351485755587191e-15    1    1   24   23
 0.9300371998756037    1    1   24   24
 -0.4310526579787889    2    1    1    1
 0.06375399557892594    2    1    2    1
 -0.01413615833287627    2    1    2    2
 -0.00638816941059217    2    1    3    3
 0.01666628544299033    2    1    4    1
 -0.007814429539434942    2    1    4    2
 -0.01273513308535451    2    1    4    4
 -0.01129307406776108    2    1    5    5
 0.02305571494979373    2    1    6    1
 -0.004627038113384698    2    1    6    2
 0.0004134653362509484    2    1    6    4
 -0.001874515319073145    2    1    6    6
 -0.004034032904237601    2    1    7    3
 -0.001984886604771338    2    1    7    7
 0.005091913265281653    2    1    8    3
 0.002397312819077933    2    1    8    7
 -0.002091745807275365    2    1    8    8
 -0.02172674460299212    2    1    9    1
 0.004013061264796023    2    1    9    2
 -0.002601880055096337    2    1    9    4
 0.002246384538826644    2    1    9    6
 -0.002316317060767093    2    1    9    9
 -0.008558912989713115    2    1   10    1
 0.003962012692369861    2    1   10    2
 0.01257044250026309    2    1   10    4
 -0.001063981569138918    2    1   10    6
 0.003993720921927674    2    1   10    9
 -0.01321057794862378    2    1   10   10
 0.01419116617809246    2    1   11    5
 -0.01803474573441025    2    1   11   11
 -1.344907637524268e-15    2    1   12    1
 0.007995938599702811    2    1   12    3
 0.004524561532918138    2    1   12    7
 -0.004657978753348228    2    1   12    8
 -0.01021806329978648    2    1   12   12
 -0.02483188108025133    2    1   13    1
 0.006386658861639832    2    1   13    2
 0.002959319028266869    2    1   13    4
 0.001855218225654879    2    1   13    6
 -0.001052893554377421    2    1   13    9
 -0.004154423553230448    2    1   13   10
 -0.002777807185720666    2    1   13   13
 -1.564826216759479e-15    2    1   14    1
 0.00095854024470614    2    1   14   14
 0.002292554383742973    2    1   15    5
 -0.00143441720616054    2    1   15   11
 0.0004077020043409714    2    1   15   15
 -0.04381105104821642    2    1   16    1
 0.01075782379364619    2    1   16    2
 0.007979257029841959    2    1   16    4
 0.002742116072888171    2    1   16    6
 -0.001700685958504942    2    1   16    9
 -0.006975775299041882    2    1   16   10
 -0.005422070340058449    2    1   16   13
 -0.009245086028936525    2    1   16   16
 3.085516298418598e-15    2    1   17    1
 0.0002005890332126203    2    1   17    3
 -8.212536695016729e-05    2    1   17    7
 0.0005174485272762042    2    1   17    8
 -0.0005216093545523695    2    1   17   12
 0.0008260156925651069    2    1   17   17
 3.761452031398878e-15    2    1   18    1
 -0.01013742184867865    2    1   18    3
 -0.005527613990971382    2    1   18    7
 0.005473848204577659    2    1   18    8
 -1.147140108598288e-15    2    1   18   10
 0.011479236244729    2    1   18   12
 -0.000212513946475975    2    1   18   17
 -0.01138985606182204    2    1   18   18
 0.03546665874742063    2    1   19    1
 -0.008202079705231673    2    1   19    2
 0.004470968947592268    2    1   19    4
 -0.004530526351425071    2    1   19    6
 0.005655345009548975    2    1   19    9
 -0.006124436410644094    2    1   19   10
 -1.316153674761622e-15    2    1   19   12
 0.001697123288022912    2    1   19   13
 0.003332279817790244    2    1   19   16
 -0.008935489834797033    2    1   19   19
 -0.003162271407641853    2    1   20    5
 0.002132105444356204    2    1   20   11
 0.0009219800273820635    2    1   20   15
 -0.002021540478733003    2    1   20   20
 0.0005675727982171427    2    1   21   14
 -0.002238569645823816    2    1   21   21
 -8.979796524412574e-05    2    1   22    1
 0.0006184244791634042    2    1   22    2
 -0.002351615743703686    2    1   22    4
 0.0007797467369996587    2    1   22    6
 -0.001240749790619719    2    1   22    9
 0.001124950504906183    2    1   22   10
 -0.000706806348410215    2    1   22   13
 0.000499992447682553    2    1   22   16
 0.0006978190782094152    2    1   22   19
 -0.00193729333998569    2    1   22   22
 0.01140378224138685    2    1   23    1
 -0.002505394768755679    2    1   23    2
 0.003950842800988719    2    1   23    4
 -0.002014130490087448    2    1   23    6
 0.00233212520079848    2    1   23    9
 -0.005150546129198575    2    1   23   10
 3.909264496122609e-05    2    1   23   13
 0.0002843082837054399    2    1   23   16
 -0.003631278219308623    2    1   23   19
 0.0003180686898738228    2    1   23   22
 -0.0049286781549595    2    1   23   23
 0.002664643836658379    2    1   24    3
 0.001405835628870297    2    1   24    7
 -0.0009792335419071224    2    1   24    8
 -0.004315890863703637    2    1   24   12
 -0.0004904165312760307    2    1   24   17
 0.004256362592439377    2    1   24   18
 -0.004937193601547729    2    1   24   24
 1.046107072372738    2    2    1    1
 -0.01413615833287627    2    2    2    1
 0.7547927943574108    2    2    2    2
 0.6830482065936431    2    2    3    3
 -0.01470448918926416    2    2    4    1
 -0.01962147300034486    2    2    4    2
 0.6820348294748479    2    2    4    4
 0.713960805163612    2    2    5    5
 -0.001995282392175456    2    2    6    1
 0.1079011323727657    2    2    6    2
 5.045876910747538e-15    2    2    6    3
 -0.05506530707285751    2    2    6    4
 0.3642462636268634    2    2    6    6
 -4.024992145135187e-15    2    2    7    2
 0.1225384214477035    2    2    7    3
 2.564571818797212e-15    2    2    7    4
 0.3414964711699732    2    2    7    7
 -1.059482362952835e-15    2    2    8    2
 -0.03453723665811922    2    2    8    3
 -6.296178856057821e-15    2    2    8    6
 -0.09730240405411555    2    2    8    7
 0.5177258049239559    2    2    8    8
 -0.0003839028559867902    2    2    9    1
 -0.07009828226800179    2    2    9    2
 2.243268504981133e-15    2    2    9    3
 0.06364047134922969    2    2    9    4
 -0.1087956919114159    2    2    9    6
 5.092931285033409e-15    2    2    9    7
 0.5257819855077845    2    2    9    9
 0.01307985735326827    2    2   10    1
 0.0097342205347524    2    2   10    2
 8.043045396366466e-15    2    2   10    3
 -0.1482952327791658    2    2   10    4
 0.04988137476361033    2    2   10    6
 2.910865992689082e-15    2    2   10    7
 -1.925543058334256e-15    2    2   10    8
 -0.02525124894593297    2    2   10    9
 0.5721713021112116    2    2   10   10
 -0.1889392771271747    2    2   11    5
 0.6164176391152246    2    2   11   11
 -2.093892550666943e-15    2    2   12    2
 -0.1376986838662776    2    2   12    3
 -8.462977226560836e-15    2    2   12    4
 -4.131545501767989e-15    2    2   12    6
 -0.1099297114080786    2    2   12    7
 0.02875103299571341    2    2   12    8
 -3.105168574525641e-15    2    2   12    9
 1.52249090071277e-15    2    2   12   10
 0.5399842401841066    2    2   12   12
 0.006927859497266122    2    2   13    1
 -0.05162962491232777    2    2   13    2
 1.098079960293319e-15    2    2   13    3
 -0.05778627522931112    2    2   13    4
 -0.03963564514822068    2    2   13    6
 2.43381703679546e-15    2    2   13    7
 -0.006050556515169635    2    2   13    9
 -0.01760986687958552    2    2   13   10
 0.5230261934459899    2    2   13   13
 -3.229764769188626e-15    2    2   14    2
 -3.703967287866668e-15    2    2   14    4
 -2.518459516576658e-15    2    2   14    6
 -1.065330187849646e-15    2    2   14   10
 0.5307051591863644    2    2   14   14
 0.01439547792256189    2    2   15    5
 0.0284427843640009    2    2   15   11
 0.5157441002055038    2    2   15   15
 0.0116617389922705    2    2   16    1
 -0.09782627576593272    2    2   16    2
 1.924025175292776e-15    2    2   16    3
 -0.02835664805447748    2    2   16    4
 -0.07101630388288349    2    2   16    6
 6.293143089974862e-15    2    2   16    7
 -0.009164767149801753    2    2   16    9
 0.01500288530719203    2    2   16   10
 0.02131621247508973    2    2   16   13
 1.333475817044993e-15    2    2   16   14
 0.5857670979292271    2    2   16   16
 6.891189008317866e-15    2    2   17    2
 -5.143541182947228e-05    2    2   17    3
 1.809750266312804e-15    2    2   17    4
 4.893221244861579e-15    2    2   17    6
 -0.002843777138638365    2    2   17    7
 0.012084708177407    2    2   17    8
 -0.01674900865194404    2    2   17   12
 -1.498801083243961e-15    2    2   17   13
 -6.579806144380029e-15    2    2   17   16
 0.4898116175484172    2    2   17   17
 4.064023423344665e-15    2    2   18    2
 0.005911354562945953    2    2   18    3
 6.8213663884098e-15    2    2   18    6
 0.02946471919590441    2    2   18    7
 -0.1220848034410332    2    2   18    8
 -1.003537530852583e-14    2    2   18    9
 8.208711488322251e-15    2    2   18   10
 -0.07399132305092904    2    2   18   12
 -3.289035710452026e-15    2    2   18   13
 0.0004378708500213241    2    2   18   17
 0.6122288145831951    2    2   18   18
 -0.0002831740696948355    2    2   19    1
 0.03639232651838032    2    2   19    2
 -0.01042567286322338    2    2   19    4
 0.05090777270039815    2    2   19    6
 -3.96861363216594e-15    2    2   19    7
 9.634654185575187e-15    2    2   19    8
 -0.1326973055038133    2    2   19    9
 0.04550171540996779    2    2   19   10
 7.65533469948565e-15    2    2   19   12
 -0.03403705464639392    2    2   19   13
 -2.116489327130123e-15    2    2   19   14
 -0.01388990798133518    2    2   19   16
 2.484124017598788e-15    2    2   19   18
 0.63155950677314    2    2   19   19
 -0.03818689072454289    2    2   20    5
 0.02218504458390844    2    2   20   11
 -1.514413594527752e-15    2    2   20   14
 -0.0878820977821044    2    2   20   15
 0.7051073333276525    2    2   20   20
 5.480782620650017e-15    2    2   21   13
 -0.0918373851341821    2    2   21   14
 1.595078236160674e-15    2    2   21   15
 0.7050941133240703    2    2   21   21
 0.001047939758343943    2    2   22    1
 0.004466417546013074    2    2   22    2
 -0.03985689423364226    2    2   22    4
 0.01123856785560262    2    2   22    6
 -0.04895201091305849    2    2   22    9
 0.01198552264952968    2    2   22   10
 0.08978432823305237    2    2   22   13
 5.466066012362571e-15    2    2   22   14
 -0.04414978240320021    2    2   22   16
 2.668004706052329e-15    2    2   22   17
 -0.001386669009910587    2    2   22   19
 0.7003561545744794    2    2   22   22
 0.002918416972725139    2    2   23    1
 0.0125784209331743    2    2   23    2
 2.491930273240683e-15    2    2   23    3
 -0.01466453650696482    2    2   23    4
 0.00735721465921645    2    2   23    6
 2.166452781060535e-15    2    2   23    7
 -0.02656071998079688    2    2   23    9
 0.07549610495195173    2    2   23   10
 -1.380839886877538e-15    2    2   23   12
 -0.03639714209097973    2    2   23   13
 -2.267895133348874e-15    2    2   23   14
 -0.05765960710949338    2    2   23   16
 4.496403249731884e-15    2    2   23   17
 -5.512951206654293e-15    2    2   23   18
 -0.0479856220916576    2    2   23   19
 -0.005110163338671446    2    2   23   22
 0.691399647165585    2    2   23   23
 -0.05014295115069953    2    2   24    3
 -1.01592454067323e-15    2    2   24    4
 -0.02080852712570573    2    2   24    7
 0.0002990720178120696    2    2   24    8
 -3.016304653963298e-15    2    2   24    9
 -2.236492241403099e-15    2    2   24   10
 0.12115841904475    2    2   24   12
 -2.185751579730777e-15    2    2   24   13
 -4.335941328204029e-15    2    2   24   16
 0.004520843204250459    2    2   24   17
 0.04987663753977234    2    2   24   18
 -7.639722188201858e-15    2    2   24   19
 -1.761611689854448e-15    2    2   24   23
 0.703065354754888    2    2   24   24
 1.7139948856916e-15    3    1    1    1
 0.01932094072390102    3    1    3    1
 0.02344320637836775    3    1    3    2
 0.003012681890728811    3    1    4    3
 0.00444147458939452    3    1    6    3
 0.01062091331298331    3    1    7    1
 0.009577725361801692    3    1    7    2
 0.003672120830344205    3    1    7    4
 0.004877754812123497    3    1    7    6
 -0.01057579567679765    3    1    8    1
 -0.007453266097646353    3    1    8    2
 -0.009093764009343062    3    1    8    4
 -0.001863647844712016    3    1    8    6
 0.001118880606138857    3    1    9    3
 -0.001819646154885666    3    1    9    7
 0.004532017221747142    3    1    9    8
 1.331237637486327e-15    3    1   10    1
 0.001744170801521495    3    1   10    3
 -0.0003042081780115486    3    1   10    7
 0.001843751099169279    3    1   10    8
 -0.02326353555669158    3    1   12    1
 -0.01311730769691979    3    1   12    2
 -0.001228328187579135    3    1   12    4
 -0.006645146027958249    3    1   12    6
 0.004988612173322917    3    1   12    9
 0.002381076949619515    3    1   12   10
 -0.009824578571191926    3    1   13    3
 -0.00437751313588487    3    1   13    7
 0.005984368925639946    3    1   13    8
 0.006850264172412011    3    1   13   12
 -0.007389428011176937    3    1   14    5
 0.0008531449482170306    3    1   14   11
 -0.006521565218570003    3    1   15   14
 -0.01005213819680699    3    1   16    3
 -0.005288168750117248    3    1   16    7
 0.003488554658173696    3    1   16    8
 0.01375725159299688    3    1   16   12
 -0.0004521134225838033    3    1   17    1
 -4.244461823458151e-05    3    1   17    2
 0.0008418391170701168    3    1   17    4
 0.0002465911548566405    3    1   17    6
 -0.003526045835542591    3    1   17    9
 -0.002668300839602804    3    1   17   10
 -1.111849327883885e-15    3    1   17   12
 0.005705880511339186    3    1   17   13
 -0.0008423967846969312    3    1   17   16
 0.02414579228338054    3    1   18    1
 0.005888864077373454    3    1   18    2
 0.01053654667359025    3    1   18    4
 0.001092761327443365    3    1   18    6
 -0.0005373311432802068    3    1   18    9
 -0.007112278910224701    3    1   18   10
 -0.004255384449196599    3    1   18   13
 -0.008934481421038656    3    1   18   16
 1.732771912066333e-15    3    1   18   18
 -2.247221607745969e-15    3    1   19    1
 -0.001553373296539575    3    1   19    3
 -1.09800880952575e-15    3    1   19    4
 -0.000175210070530085    3    1   19    7
 -0.001059349126002268    3    1   19    8
 -0.002824293518970882    3    1   19   12
 0.0009787632914300206    3    1   19   17
 0.00797074588887735    3    1   19   18
 -1.352216949523921e-15    3    1   19   19
 -0.0009005157208113883    3    1   20   14
 0.01727181813684809    3    1   21    5
 -0.01206654286201413    3    1   21   11
 -0.001937825366133369    3    1   21   15
 0.0009098367285721486    3    1   21   20
 -0.009325461192795531    3    1   22    3
 -0.004912969414386023    3    1   22    7
 0.004364142189491206    3    1   22    8
 0.006839623136757178    3    1   22   12
 -0.0002768274575201263    3    1   22   17
 -0.003843628492341225    3    1   22   18
 0.01330813957502811    3    1   23    3
 0.007556728789056199    3    1   23    7
 -0.009532894018070797    3    1   23    8
 -0.009733556652771692    3    1   23   12
 5.054320688464191e-05    3    1   23   17
 0.009227645236032082    3    1   23   18
 -0.0137628646658787    3    1   24    1
 -0.005920913270045866    3    1   24    2
 0.01292397171701722    3    1   24    4
 -0.005608753668462213    3    1   24    6
 0.009066833575024049    3    1   24    9
 -0.009671814362977671    3    1   24   10
 0.002473822754644153    3    1   24   13
 0.003158964507628565    3    1   24   16
 -0.008762525685802708    3    1   24   19
 0.001531778043981643    3    1   24   22
 -0.004295674801771288    3    1   24   23
 -1.08039984158528e-15    3    2    1    1
 0.02344320637836775    3    2    3    1
 0.1565394423858569    3    2    3    2
 -0.01767630412255042    3    2    4    3
 1.639584735341204e-15    3    2    6    2
 -0.0002454051894029408    3    2    6    3
 1.08059720026199e-15    3    2    6    4
 3.922101358966312e-15    3    2    6    6
 0.01252829080579537    3    2    7    1
 0.03927738780502266    3    2    7    2
 -1.138629121544277e-15    3    2    7    3
 0.02272753839162446    3    2    7    4
 0.05104340100395354    3    2    7    6
 -3.801754917820421e-15    3    2    7    7
 -0.01217762569791418    3    2    8    1
 -0.003658643936959148    3    2    8    2
 2.231288070975168e-15    3    2    8    3
 -0.07787747176746912    3    2    8    4
 -0.01089790568896481    3    2    8    6
 3.001071613439876e-15    3    2    8    8
 0.06333906691655587    3    2    9    3
 1.65366581105636e-15    3    2    9    4
 -0.01541464671750104    3    2    9    7
 0.08229626179069127    3    2    9    8
 -3.071002653565191e-15    3    2    9    9
 1.367178939504221e-15    3    2   10    1
 2.130240428499519e-15    3    2   10    2
 0.03415440374200233    3    2   10    3
 2.760920832234337e-15    3    2   10    6
 0.006361445584235474    3    2   10    7
 -0.002817731525188907    3    2   10    8
 -1.919037845299343e-15    3    2   10    9
 -1.871766630578975e-15    3    2   10   10
 -0.02540347761733935    3    2   12    1
 -0.03704138701342257    3    2   12    2
 1.653245682714521e-15    3    2   12    3
 0.01289632717484408    3    2   12    4
 -0.04309951511164293    3    2   12    6
 1.653232130187365e-15    3    2   12    7
 1.061217086428812e-15    3    2   12    8
 0.04381739177118834    3    2   12    9
 0.01852515424394357    3    2   12   10
 4.738614015065146e-15    3    2   12   12
 -0.0452755042103033    3    2   13    3
 4.210179390086148e-15    3    2   13    5
 -0.01582887353731498    3    2   13    7
 0.04992423837604903    3    2   13    8
 -1.64625257870199e-15    3    2   13    9
 -1.627170620466245e-15    3    2   13   10
 1.334172091636591e-15    3    2   13   11
 0.01378310716406423    3    2   13   12
 -2.644398044118499e-15    3    2   14    3
 -0.06756511561032996    3    2   14    5
 3.138617525905328e-15    3    2   14    8
 -0.02293181763757411    3    2   14   11
 6.939565719460729e-15    3    2   15   13
 -0.1109818532229613    3    2   15   14
 -0.02637082240818634    3    2   16    3
 -0.01000513746749624    3    2   16    7
 -0.01818310782995679    3    2   16    8
 -4.814941848008125e-15    3    2   16    9
 -7.260685108700926e-15    3    2   16   10
 0.07677801459259163    3    2   16   12
 5.290906601729262e-15    3    2   16   13
 -5.420143500689534e-15    3    2   16   16
 -0.0002342039133894807    3    2   17    1
 -0.002910854682947495    3    2   17    2
 2.204399857097528e-15    3    2   17    3
 -7.184682795204273e-05    3    2   17    4
 0.004629860322900582    3    2   17    6
 -0.05609705481171827    3    2   17    9
 -0.0437347078763357    3    2   17   10
 -7.584211036970601e-15    3    2   17   12
 0.09104935944836517    3    2   17   13
 5.695077873755503e-15    3    2   17   14
 -0.01565466172983531    3    2   17   16
 1.540434446667405e-15    3    2   17   17
 0.02358879348912228    3    2   18    1
 -0.02197163078609033    3    2   18    2
 -5.347285114698508e-15    3    2   18    3
 0.05475592726718954    3    2   18    4
 -0.01363751871808554    3    2   18    6
 -1.929229345720707e-15    3    2   18    7
 0.006824784024798021    3    2   18    9
 -0.04291248403539174    3    2   18   10
 -1.307981500886513e-15    3    2   18   12
 0.001696676491191706    3    2   18   13
 -0.02622072906651891    3    2   18   16
 2.539635168830046e-15    3    2   18   17
 2.071259830316308e-14    3    2   18   18
 -2.04884395040017e-15    3    2   19    1
 2.015206577998807e-15    3    2   19    2
 -0.05005031305187896    3    2   19    3
 -5.782050185865195e-15    3    2   19    4
 -0.02464448537998638    3    2   19    7
 -0.001616138081138825    3    2   19    8
 3.726186026398182e-15    3    2   19   10
 0.007740927665220129    3    2   19   12
 3.393552799879629e-15    3    2   19   16
 0.006688782084666427    3    2   19   17
 0.1039569191350301    3    2   19   18
 -1.978972541394342e-14    3    2   19   19
 1.57175021195174e-15    3    2   20   13
 -0.02522250194068477    3    2   20   14
 0.08673561347974056    3    2   21    5
 -0.04782658466018984    3    2   21   11
 -0.02884639974507953    3    2   21   15
 -0.01027648572532845    3    2   21   20
 -0.04876282283270333    3    2   22    3
 -1.134495600761676e-15    3    2   22    4
 -0.02702794451879008    3    2   22    7
 0.01184602535354716    3    2   22    8
 -1.122149248522497e-15    3    2   22    9
 -1.295838436554675e-15    3    2   22   10
 0.03510436342423089    3    2   22   12
 -1.913616834436915e-15    3    2   22   16
 -0.02359562244181194    3    2   22   17
 -0.004658504329308452    3    2   22   18
 0.04407182058865813    3    2   23    3
 -2.336835152466632e-15    3    2   23    4
 2.410777740630143e-15    3    2   23    6
 0.03453413544763637    3    2   23    7
 -0.06808020889781374    3    2   23    8
 2.896988204881268e-15    3    2   23   10
 -0.02585018682033395    3    2   23   12
 0.01065980458100817    3    2   23   17
 0.05670376977917512    3    2   23   18
 -3.445160823289939e-15    3    2   23   19
 -0.01487467072820233    3    2   24    1
 -0.01342748412682103    3    2   24    2
 0.05529262834659089    3    2   24    4
 -0.02337824599796276    3    2   24    6
 1.774303631536106e-15    3    2   24    7
 -1.653950414126637e-15    3    2   24    8
 0.05849947686946119    3    2   24    9
 -0.03342823702667956    3    2   24   10
 -1.824549625967231e-15    3    2   24   12
 0.01198854195300251    3    2   24   13
 0.009019978860701949    3    2   24   16
 -2.816540403682843e-15    3    2   24   18
 -0.05249140102405089    3    2   24   19
 -0.007062896419599446    3    2   24   22
 -0.02030911050203259    3    2   24   23
 -2.395111019237728e-15    3    2   24   24
 0.8787351510592077    3    3    1    1
 -0.006388169410592174    3    3    2    1
 0.683048206593643    3    3    2    2
 0.6696050006839579    3    3    3    3
 -0.007195110702711426    3    3    4    1
 -0.01572314627690455    3    3    4    2
 0.6090003638312408    3    3    4    4
 0.6245556168907311    3    3    5    5