 &FCI NORB=  10,NELEC=12,MS2=0,
  ORBSYM=1,1,1,1,1,1,1,1,1,1,
  ISYM=1,
 &END
 1.964423230605297    1    1    1    1
 -1.128664778283182e-10    1    1    2    1
 1.964204991963315    1    1    2    2
 -0.1785093669334156    1    1    3    1
 6.889197545767445e-12    1    1    3    2
 0.6766555352969642    1    1    3    3
 1.851785277852055e-11    1    1    4    1
 -0.1733300511876552    1    1    4    2
 -1.306078162288671e-11    1    1    4    3
 0.5881131289900281    1    1    4    4
 0.6048800055144277    1    1    5    5
 -1.052328883759402e-15    1    1    6    2
 0.6048800055144274    1    1    6    6
 0.05804820482129126    1    1    7    1
 -1.033620238011235e-12    1    1    7    2
 0.06450266322843427    1    1    7    3
 1.485211953422549e-11    1    1    7    4
 0.6166994468214757    1    1    7    7
 -1.772291672143614e-11    1    1    8    5
 -1.868678822791736e-12    1    1    8    6
 0.6395513177584289    1    1    8    8
 1.868576907787523e-12    1    1    9    5
 -1.772301749802807e-11    1    1    9    6
 0.6395513177584287    1    1    9    9
 -1.375907688564576e-11    1    1   10    1
 0.1140970308804933    1    1   10    2
 1.301261182140578e-11    1    1   10    3
 -0.0448191491313306    1    1   10    4
 1.411643024695763e-11    1    1   10    7
 0.7857076961766463    1    1   10   10
 -1.128665168595964e-10    2    1    1    1
 1.543974840268718    2    1    2    1
 1.128841008841107e-10    2    1    2    2
 6.706090113691452e-12    2    1    3    1
 -0.1834276553405715    2    1    3    2
 -1.272940086671781e-14    2    1    3    3
 -0.1666754100382257    2    1    4    1
 -6.096508064004635e-12    2    1    4    2
 0.1787075045131668    2    1    4    3
 -1.367096862011632e-14    2    1    5    5
 -1.119663631513507e-15    2    1    6    1
 1.304360481181807e-15    2    1    6    3
 -1.366962099069724e-14    2    1    6    6
 -1.577302470492231e-12    2    1    7    1
 0.04324954110281184    2    1    7    2
 -6.199901703141109e-15    2    1    7    3
 -0.2031352651100486    2    1    7    4
 -1.413993377433626e-15    2    1    7    6
 4.787836793695988e-15    2    1    7    7
 0.242413607205773    2    1    8    5
 0.02556027797231837    2    1    8    6
 1.117357074920111e-14    2    1    8    8
 -1.649508361411194e-15    2    1    9    4
 -0.02556027797231849    2    1    9    5
 0.242413607205773    2    1    9    6
 1.107447467063594e-14    2    1    9    9
 0.1311492295383268    2    1   10    1
 4.800450835451553e-12    2    1   10    2
 -0.177988733939229    2    1   10    3
 -3.365363543395006e-15    2    1   10    4
 -0.1930392432278047    2    1   10    7
 6.092348847630547e-15    2    1   10   10
 1.964204991963315    2    2    1    1
 1.128839615099214e-10    2    2    2    1
 1.963987965801208    2    2    2    2
 -0.1784247850930628    2    2    3    1
 -1.992730980227009e-11    2    2    3    2
 0.6767321177857046    2    2    3    3
 -5.852679723240134e-12    2    2    4    1
 -0.17331890845049    2    2    4    2
 1.306867114525545e-11    2    2    4    3
 0.5880653850720792    2    2    4    4
 0.6049282964472651    2    2    5    5
 -1.047753292380805e-15    2    2    6    2
 0.6049282964472649    2    2    6    6
 0.05812970515067269    2    2    7    1
 5.293054189392521e-12    2    2    7    2
 0.06456990890234877    2    2    7    3
 -1.484908029869558e-11    2    2    7    4
 0.616662033419012    2    2    7    7
 1.772134132146941e-11    2    2    8    5
 1.868574739383178e-12    2    2    8    6
 0.6395887607441275    2    2    8    8
 -1.868692700579544e-12    2    2    9    5
 1.772121338561305e-11    2    2    9    6
 0.6395887607441274    2    2    9    9
 5.423285193324745e-12    2    2   10    1
 0.1139184206609592    2    2   10    2
 -1.301184854307635e-11    2    2   10    3
 -0.04489375436214679    2    2   10    4
 -1.410885297481457e-11    2    2   10    7
 0.7857936445743956    2    2   10   10
 -0.1785093669334155    3    1    1    1
 6.706081785663514e-12    3    1    2    1
 -0.1784247850930628    3    1    2    2
 0.03046406823109561    3    1    3    1
 4.094936737787658e-15    3    1    3    2
 -0.002685799814169402    3    1    3    3
 -1.920233266285935e-12    3    1    4    1
 0.0261959490514291    3    1    4    2
 3.419936859747064e-13    3    1    4    3
 -0.0116510159841357    3    1    4    4
 -0.00263888461513783    3    1    5    5
 -0.002638884615137829    3    1    6    6
 -0.004611214856087175    3    1    7    1
 1.27473274720135e-14    3    1    7    2
 0.006132097358566343    3    1    7    3
 -3.874169865122901e-13    3    1    7    4
 -0.007019902726440493    3    1    7    7
 2.961867227106968e-13    3    1    8    5
 3.123057910371652e-14    3    1    8    6
 -0.006400486724227645    3    1    8    8
 -3.122880880485675e-14    3    1    9    5
 2.9618668628828e-13    3    1    9    6
 -0.006400486724227642    3    1    9    9
 1.836056399996124e-12    3    1   10    1
 -0.02527801575703633    3    1   10    2
 -2.01122538762144e-13    3    1   10    3
 -0.001144720410165708    3    1   10    4
 -2.506146332126313e-13    3    1   10    7
 -0.008207708585037624    3    1   10   10
 6.889108956285557e-12    3    2    1    1
 -0.1834276553405716    3    2    2    1
 -1.992743124646593e-11    3    2    2    2
 4.086252426616815e-15    3    2    3    1
 0.03031400547896829    3    2    3    2
 -9.726418346948928e-14    3    2    3    3
 0.02633572990154152    3    2    4    1
 1.920160868685867e-12    3    2    4    2
 -0.009342187085710702    3    2    4    3
 -4.256098511817852e-13    3    2    4    4
 -9.582960093029524e-14    3    2    5    5
 -9.582916057904178e-14    3    2    6    6
 1.276361083339152e-14    3    2    7    1
 -0.004984172473885803    3    2    7    2
 2.24348100860694e-13    3    2    7    3
 0.01060525807561453    3    2    7    4
 -2.5669483899593e-13    3    2    7    7
 -0.008097893123859215    3    2    8    5
 -0.0008538481054005693    3    2    8    6
 -2.341176230202628e-13    3    2    8    8
 0.0008538481054005732    3    2    9    5
 -0.008097893123859213    3    2    9    6
 -2.341156782326159e-13    3    2    9    9
 -0.02494103504464917    3    2   10    1
 -1.835294699689075e-12    3    2   10    2
 0.005493389526116201    3    2   10    3
 -4.182635141014579e-14    3    2   10    4
 0.006853618839709938    3    2   10    7
 -2.998443507373771e-13    3    2   10   10
 0.6766555352969642    3    3    1    1
 -1.262896986422776e-14    3    3    2    1
 0.6767321177857045    3    3    2    2
 -0.002685799814169393    3    3    3    1
 -9.727375155366147e-14    3    3    3    2
 0.6102109069128835    3    3    3    3
 6.009553206627605e-13    3    3    4    1
 -0.01641839892683299    3    3    4    2
 2.588207426157396e-15    3    3    4    3
 0.4512968841145091    3    3    4    4
 0.5314188535221048    3    3    5    5
 0.5314188535221046    3    3    6    6
 0.02130903723117065    3    3    7    1
 7.790157408038567e-13    3    3    7    2
 0.09962569201886601    3    3    7    3
 7.577272143066693e-15    3    3    7    4
 0.4950654905505737    3    3    7    7
 -5.292939480802672e-15    3    3    8    5
 0.5171488015875089    3    3    8    8
 -5.301314942585122e-15    3    3    9    6
 0.5171488015875086    3    3    9    9
 6.026630475046424e-13    3    3   10    1
 -0.01651453259797568    3    3   10    2
 2.785965902418752e-15    3    3   10    3
 -0.05809851503052024    3    3   10    4
 6.952771691715043e-15    3    3   10    7
 0.6159522468104678    3    3   10   10
 1.851783550497766e-11    4    1    1    1
 -0.1666754100382257    4    1    2    1
 -5.852773262782565e-12    4    1    2    2
 -1.920256398332208e-12    4    1    3    1
 0.02633572990154151    4    1    3    2
 6.009609043039488e-13    4    1    3    3
 0.02769374098632268    4    1    4    1
 -6.599680925454404e-15    4    1    4    2
 -0.00467453619222654    4    1    4    3
 1.927098346350686e-13    4    1    4    4
 2.763664929966535e-13    4    1    5    5
 2.763663863730725e-13    4    1    6    6
 8.612613990789816e-13    4    1    7    1
 -0.01156342018895206    4    1    7    2
 2.104180002980571e-13    4    1    7    3
 -0.002473020686266628    4    1    7    4
 1.849249919860796e-13    4    1    7    7
 -0.002741042577163006    4    1    8    5
 -0.0002890176463847358    4    1    8    6
 2.798209221570227e-13    4    1    8    8
 0.0002890176463847372    4    1    9    5
 -0.002741042577163006    4    1    9    6
 2.798213050159148e-13    4    1    9    9
 -0.0138679200704521    4    1   10    1
 -1.952998445473378e-14    4    1   10    2
 0.0106977292982574    4    1   10    3
 -2.637833527996403e-13    4    1   10    4
 0.00286393965753662    4    1   10    7
 7.348141192742297e-13    4    1   10   10
 -0.1733300511876553    4    2    1    1
 -6.096558049536435e-12    4    2    2    1
 -0.17331890845049    4    2    2    2
 0.0261959490514291    4    2    3    1
 1.920149721732281e-12    4    2    3    2
 -0.01641839892683301    4    2    3    3
 -6.602287881107816e-15    4    2    4    1
 0.027894219421513    4    2    4    2
 -1.715823121604954e-13    4    2    4    3
 -0.00529390240930564    4    2    4    4
 -0.007551915518939416    4    2    5    5
 -0.007551915518939414    4    2    6    6
 -0.01201853781949909    4    2    7    1
 -8.627773991662195e-13    4    2    7    2
 -0.005730747368631382    4    2    7    3
 -8.977649353092421e-14    4    2    7    4
 -0.005056880397401005    4    2    7    7
 -1.004874002730167e-13    4    2    8    5
 -1.059590783170083e-14    4    2    8    6
 -0.007659090694426596    4    2    8    8
 1.059723597936213e-14    4    2    9    5
 -1.004873267929085e-13    4    2    9    6
 -0.007659090694426594    4    2    9    9
 -1.948162734377503e-14    4    2   10    1
 -0.0133543501406735    4    2   10    2
 3.908308138927952e-13    4    2   10    3
 0.007218027761249623    4    2   10    4
 1.044589761911574e-13    4    2   10    7
 -0.02009746603700074    4    2   10   10
 -1.306083725601068e-11    4    3    1    1
 0.1787075045131668    4    3    2    1
 1.306862458554841e-11    4    3    2    2
 3.420132964815012e-13    4    3    3    1
 -0.009342187085710735    4    3    3    2
 2.484991379336776e-15    4    3    3    3
 -0.004674536192226575    4    3    4    1
 -1.71561874949544e-13    4    3    4    2
 0.07121777673998822    4    3    4    3
 -2.130240428499519e-15    4    3    4    4
 -1.731530797040369e-15    4    3    5    5
 -1.734723475976806e-15    4    3    6    6
 1.118702298765623e-13    4    3    7    1
 -0.00302544774236462    4    3    7    2
 3.464242781525684e-15    4    3    7    3
 -0.09639464020081491    4    3    7    4
 3.295974604355933e-15    4    3    7    7
 0.1008762597783612    4    3    8    5
 0.01063647074297283    4    3    8    6
 7.082333851327061e-15    4    3    8    8
 -1.137363823838076e-15    4    3    9    4
 -0.01063647074297288    4    3    9    5
 0.1008762597783612    4    3    9    6
 7.049916206369744e-15    4    3    9    9
 0.01043939581448065    4    3   10    1
 3.804412297345183e-13    4    3   10    2
 -0.05050041288982179    4    3   10    3
 -3.982925100842749e-15    4    3   10    4
 -0.06784059176278744    4    3   10    7
 8.170547571850761e-15    4    3   10   10
 0.588113128990028    4    4    1    1
 0.5880653850720794    4    4    2    2
 -0.01165101598413574    4    4    3    1
 -4.255534726688159e-13    4    4    3    2
 0.4512968841145092    4    4    3    3
 1.927745072946574e-13    4    4    4    1
 -0.00529390240930566    4    4    4    2
 -2.130240428499519e-15    4    4    4    3
 0.478711048037355    4    4    4    4
 0.4490730678901997    4    4    5    5
 0.4490730678901996    4    4    6    6
 -0.004734536165618709    4    4    7    1
 -1.721244674568467e-13    4    4    7    2
 -0.005054006819024667    4    4    7    3
 4.746203430272544e-15    4    4    7    4
 0.4886072570046741    4    4    7    7
 -2.1989788462351e-15    4    4    8    5
 0.4713809935763436    4    4    8    8
 -2.164934898019055e-15    4    4    9    6
 0.4713809935763434    4    4    9    9
 -5.501780671671175e-13    4    4   10    1
 0.01503263100604088    4    4   10    2
 -1.013078509970455e-15    4    4   10    3
 0.01662001264849947    4    4   10    4
 1.582067810090848e-15    4    4   10    7
 0.4924875328341494    4    4   10   10
 0.009535689648758068    5    1    5    1
 1.875398707856801e-14    5    1    5    2
 0.01603784098939518    5    1    5    3
 -3.906066008835252e-13    5    1    5    4
 -0.002821467403033448    5    1    7    5
 -8.169778677692891e-13    5    1    8    1
 0.01146396464826367    5    1    8    2
 -4.134024936611191e-13    5    1    8    3
 0.01468067184526723    5    1    8    4
 1.942721157555116e-13    5    1    8    7
 8.614011089050599e-14    5    1    9    1
 -0.001208769286724567    5    1    9    2
 4.358644521695876e-14    5    1    9    3
 -0.001547941378005631    5    1    9    4
 -2.048280165270477e-14    5    1    9    7
 2.912898519317377e-13    5    1   10    5
 -0.01023935135588408    5    1   10    8
 0.001079645115344005    5    1   10    9
 1.875417469636583e-14    5    2    5    1
 0.009007620517192999    5    2    5    2
 5.852412738455159e-13    5    2    5    3
 0.01067640048146164    5    2    5    4
 -1.033374322006153e-13    5    2    7    5
 0.01088415788086532    5    2    8    1
 8.167931120958011e-13    5    2    8    2
 0.01130065078947137    5    2    8    3
 5.366359483519045e-13    5    2    8    4
 -0.005328137024088409    5    2    8    7
 -0.001147634013355391    5    2    9    1
 -8.612621563264364e-14    5    2    9    2
 -0.001191549347317785    5    2    9    3
 -5.658659169493693e-14    5    2    9    4
 0.0005618028830151339    5    2    9    7
 -0.007956008403057694    5    2   10    5
 -3.741505100058056e-13    5    2   10    8
 3.945335811522677e-14    5    2   10    9
 0.01603784098939518    5    3    5    1
 5.852445264520334e-13    5    3    5    2
 0.09334482752382725    5    3    5    3
 -1.739927646404738e-15    5    3    5    4
 -0.00424544890698064    5    3    7    5
 -6.59322470480516e-13    5    3    8    1
 0.0180302290833632    5    3    8    2
 -1.826663820203578e-15    5    3    8    3
 0.06794441255639484    5    3    8    4
 -1.625435896990268e-15    5    3    8    7
 6.951636455807485e-14    5    3    9    1
 -0.001901121280226424    5    3    9    2
 -0.007164111336923252    5    3    9    4
 2.437682895166729e-15    5    3   10    5
 -0.05258689106327451    5    3   10    8
 0.005544802409282069    5    3   10    9
 -3.906049745802664e-13    5    4    5    1
 0.01067640048146164    5    4    5    2
 -1.734723475976807e-15    5    4    5    3
 0.04502868774552744    5    4    5    4
 0.01266088117252276    5    4    8    1
 4.630035402655459e-13    5    4    8    2
 0.04125020165043459    5    4    8    3
 -0.02963444697581327    5    4    8    7
 -0.00133497308948286    5    4    9    1
 -4.882286388325704e-14    5    4    9    2
 -0.004349453121681814    5    4    9    3
 0.003124678977342824    5    4    9    7
 -0.02069113907963842    5    4   10    5
 0.6048800055144276    5    5    1    1
 -1.366611088616382e-14    5    5    2    1
 0.6049282964472652    5    5    2    2
 -0.002638884615137817    5    5    3    1
 -9.581571647210296e-14    5    5    3    2
 0.5314188535221047    5    5    3    3
 2.763830559814745e-13    5    5    4    1
 -0.007551915518939386    5    5    4    2
 -1.748601263784622e-15    5    5    4    3
 0.4490730678901996    5    5    4    4
 0.517043549705809    5    5    5    5
 0.474972355388954    5    5    6    6
 0.008524283209230153    5    5    7    1
 3.117957281251194e-13    5    5    7    2
 0.04981338796509334    5    5    7    3
 7.466249840604178e-15    5    5    7    4
 0.4660460816108403    5    5    7    7
 -8.227766341503684e-15    5    5    8    5
 0.5161058837248079    5    5    8    8
 -6.689093723366568e-15    5    5    9    6
 -0.00419849661825876    5    5    9    8
 0.4767300458709818    5    5    9    9
 2.203472322138966e-13    5    5   10    1
 -0.006048245391052681    5    5   10    2
 4.191091917959966e-15    5    5   10    3
 -0.03686427484384445    5    5   10    4
 6.647460359943125e-15    5    5   10    7
 0.5446164665702276    5    5   10   10
 -1.119663631513507e-15    6    1    2    1
 0.009535689648758066    6    1    6    1
 1.875386510582361e-14    6    1    6    2
 0.01603784098939517    6    1    6    3
 -3.906044324791802e-13    6    1    6    4
 -0.002821467403033447    6    1    7    6
 -8.614302860137193e-14    6    1    8    1
 0.001208769286724562    6    1    8    2
 -4.358786823231015e-14    6    1    8    3
 0.001547941378005624    6    1    8    4
 2.048431953574625e-14    6    1    8    7
 -8.169796558558408e-13    6    1    9    1
 0.01146396464826366    6    1    9    2
 -4.134041199643779e-13    6    1    9    3
 0.01468067184526723    6    1    9    4
 1.942699473511666e-13    6    1    9    7
 2.912847914260386e-13    6    1   10    6
 -0.001079645115344    6    1   10    8
 -0.01023935135588408    6    1   10    9
 -1.052328883759401e-15    6    2    1    1
 -1.047753292380805e-15    6    2    2    2
 1.875324041902501e-14    6    2    6    1
 0.009007620517192998    6    2    6    2
 5.852413822657332e-13    6    2    6    3
 0.01067640048146164    6    2    6    4
 -1.033387785065454e-13    6    2    7    6
 0.001147634013355385    6    2    8    1
 8.612306212898101e-14    6    2    8    2
 0.001191549347317779    6    2    8    3
 5.6582993498977e-14    6    2    8    4
 -0.0005618028830151313    6    2    8    7
 0.01088415788086532    6    2    9    1
 8.167913265503483e-13    6    2    9    2
 0.01130065078947137    6    2    9    3
 5.366358399316873e-13    6    2    9    4
 -0.005328137024088407    6    2    9    7
 -0.007956008403057688    6    2   10    6
 -3.945064760979555e-14    6    2   10    8
 -3.741503634691057e-13    6    2   10    9
 1.304360481181807e-15    6    3    2    1
 0.01603784098939517    6    3    6    1
 5.852417617364936e-13    6    3    6    2
 0.09334482752382721    6    3    6    3
 -1.734723475976807e-15    6    3    6    4
 -0.004245448906980637    6    3    7    6
 -6.95183550855009e-14    6    3    8    1
 0.001901121280226415    6    3    8    2
 0.007164111336923219    6    3    8    4
 -6.593243102360775e-13    6    3    9    1
 0.01803022908336319    6    3    9    2
 -1.819291245430676e-15    6    3    9    3
 0.06794441255639481    6    3    9    4
 1.224244881828389e-15    6    3    9    6
 -1.635844237846129e-15    6    3    9    7
 2.428612866367531e-15    6    3   10    6
 -0.005544802409282041    6    3   10    8
 -0.05258689106327447    6    3   10    9
 -3.90604916982026e-13    6    4    6    1
 0.01067640048146164    6    4    6    2
 -1.723881454251952e-15    6    4    6    3
 0.04502868774552744    6    4    6    4
 0.001334973089482854    6    4    8    1
 4.881913672653089e-14    6    4    8    2
 0.004349453121681796    6    4    8    3
 -0.003124678977342811    6    4    8    7
 0.01266088117252275    6    4    9    1
 4.630041721521245e-13    6    4    9    2
 0.04125020165043457    6    4    9    3
 -0.02963444697581326    6    4    9    7
 -0.02069113907963842    6    4   10    6
 0.02103559715842738    6    5    6    5
 0.004198496618258517    6    5    8    8
 0.01968791892691306    6    5    9    8
 -0.004198496618258787    6    5    9    9
 0.6048800055144274    6    6    1    1
 -1.366675463120373e-14    6    6    2    1
 0.604928296447265    6    6    2    2
 -0.002638884615137834    6    6    3    1
 -9.586081928247836e-14    6    6    3    2
 0.5314188535221045    6    6    3    3
 2.763314750631185e-13    6    6    4    1
 -0.007551915518939418    6    6    4    2
 -1.797173521111972e-15    6    6    4    3
 0.4490730678901996    6    6    4    4
 0.474972355388954    6    6    5    5
 0.5170435497058086    6    6    6    6
 0.008524283209230149    6    6    7    1
 3.118109069555342e-13    6    6    7    2
 0.04981338796509328    6    6    7    3
 7.53563877964325e-15    6    6    7    4
 0.46604608161084    6    6    7    7
 -6.651255067546824e-15    6    6    8    5
 0.4767300458709817    6    6    8    8
 -8.271161533457416e-15    6    6    9    6
 0.004198496618258541    6    6    9    8
 0.5161058837248075    6    6    9    9
 2.203663141721324e-13    6    6   10    1
 -0.006048245391052654    6    6   10    2
 4.315992008230296e-15    6    6   10    3
 -0.03686427484384446    6    6   10    4
 6.522560269672795e-15    6    6   10    7
 0.5446164665702276    6    6   10   10
 0.05804820482129126    7    1    1    1
 -1.577303121860568e-12    7    1    2    1
 0.05812970515067271    7    1    2    2
 -0.004611214856087175    7    1    3    1
 1.276447480699772e-14    7    1    3    2
 0.02130903723117065    7    1    3    3
 8.612624875163188e-13    7    1    4    1
 -0.01201853781949909    7    1    4    2
 1.118742685296548e-13    7    1    4    3
 -0.004734536165618714    7    1    4    4
 0.008524283209230144    7    1    5    5
 0.008524283209230141    7    1    6    6
 0.01279638542674681    7    1    7    1
 4.02958780709381e-14    7    1    7    2
 0.01510212590745783    7    1    7    3
 -5.420893768592894e-13    7    1    7    4
 -3.231496966901986e-05    7    1    7    7
 1.535804611164525e-13    7    1    8    5
 1.61947820605246e-14    7    1    8    6
 0.004772943201382131    7    1    8    8
 -1.619484304689681e-14    7    1    9    5
 1.535798398177857e-13    7    1    9    6
 0.00477294320138213    7    1    9    9
 6.045674005514934e-13    7    1   10    1
 -0.008838140812634239    7    1   10    2
 3.729296534668407e-13    7    1   10    3
 -0.0119426080299858    7    1   10    4
 -9.95098643243042e-14    7    1   10    7
 0.02108857337841175    7    1   10   10
 -1.033601653261339e-12    7    2    1    1
 0.04324954110281185    7    2    2    1
 5.293052644404425e-12    7    2    2    2
 1.275352182395677e-14    7    2    3    1
 -0.004984172473885802    7    2    3    2
 7.790182344688534e-13    7    2    3    3
 -0.01156342018895206    7    2    4    1
 -8.627771213394128e-13    7    2    4    2
 -0.003025447742364626    7    2    4    3
 -1.7210581917948e-13    7    2    4    4
 3.118057415170112e-13    7    2    5    5
 3.118054859446717e-13    7    2    6    6
 4.029533427578596e-14    7    2    7    1
 0.01170177983079148    7    2    7    2
 5.513601727957784e-13    7    2    7    3
 0.01482807402737338    7    2    7    4
 -1.680947048221526e-15    7    2    7    7
 -0.004193171438601374    7    2    8    5
 -0.0004421312350888725    7    2    8    6
 1.743689895705898e-13    7    2    8    8
 0.0004421312350888745    7    2    9    5
 -0.004193171438601373    7    2    9    6
 1.743691996347607e-13    7    2    9    9
 -0.007681017176185384    7    2   10    1
 -6.030671906406999e-13    7    2   10    2
 -0.0102055296143878    7    2   10    3
 -4.369697962844366e-13    7    2   10    4
 0.002734905074705786    7    2   10    7
 7.710238697500316e-13    7    2   10   10
 0.0645026632284343    7    3    1    1
 -6.18655585202417e-15    7    3    2    1
 0.0645699089023488    7    3    2    2
 0.006132097358566337    7    3    3    1
 2.243435472115696e-13    7    3    3    2
 0.09962569201886599    7    3    3    3
 2.104165467895196e-13    7    3    4    1
 -0.005730747368631382    7    3    4    2
 3.438655610255026e-15    7    3    4    3
 -0.005054006819024674    7    3    4    4
 0.0498133879650933    7    3    5    5
 0.04981338796509329    7    3    6    6
 0.01510212590745783    7    3    7    1
 5.51364563814577e-13    7    3    7    2
 0.0636875172717465    7    3    7    3
 0.02307176872511027    7    3    7    7
 0.03050299090594898    7    3    8    8
 0.03050299090594897    7    3    9    9
 6.897779822502429e-13    7    3   10    1
 -0.01886823236119621    7    3   10    2
 1.92077256877532e-15    7    3   10    3
 -0.03580342893072713    7    3   10    4
 2.417337163773681e-15    7    3   10    7
 0.08711904732889804    7    3   10   10
 1.485214094044214e-11    7    4    1    1
 -0.2031352651100486    7    4    2    1
 -1.484905126410022e-11    7    4    2    2
 -3.874212420058171e-13    7    4    3    1
 0.01060525807561455    7    4    3    2
 7.61196661258623e-15    7    4    3    3
 -0.002473020686266623    7    4    4    1
 -8.977486722766548e-14    7    4    4    2
 -0.09639464020081491    7    4    4    3
 4.78089789979208e-15    7    4    4    4
 7.410950871126207e-15    7    4    5    5
 7.410738689372918e-15    7    4    6    6
 -5.420950147105863e-13    7    4    7    1
 0.01482807402737337    7    4    7    2
 0.174444785157525    7    4    7    4
 1.06186291029698e-15    7    4    7    6
 -3.066991105526995e-15    7    4    7    7
 -0.1270638509651129    7    4    8    5
 -0.01339771058373234    7    4    8    6
 -5.848078098169562e-15    7    4    8    8
 1.04085892742748e-15    7    4    9    4
 0.0133977105837324    7    4    9    5
 -0.1270638509651129    7    4    9    6
 -5.814793091474257e-15    7    4    9    9
 -0.02344729286928204    7    4   10    1
 -8.578344198179044e-13    7    4   10    2
 0.03110910663315959    7    4   10    3
 0.108197338064385    7    4   10    7
 -1.568190022283034e-15    7    4   10   10
 -0.002821467403033448    7    5    5    1
 -1.033389411368713e-13    7    5    5    2
 -0.004245448906980637    7    5    5    3
 0.02285145730850967    7    5    7    5
 1.386911249636868e-13    7    5    8    1
 -0.003805523696036722    7    5    8    2
 -0.02506696836648463    7    5    8    4
 1.150121664572623e-15    7    5    8    7
 -1.462228169933123e-14    7    5    9    1
 0.0004012573577124964    7    5    9    2
 0.002643080505075719    7    5    9    4
 -0.006805362934286813    7    5   10    8
 0.0007175627239242757    7    5   10    9
 -1.413993377433625e-15    7    6    2    1
 -0.002821467403033447    7    6    6    1
 -1.033386429812738e-13    7    6    6    2
 -0.004245448906980635    7    6    6    3
 1.061862910296979e-15    7    6    7    4
 0.02285145730850967    7    6    7    6
 1.462405496280631e-14    7    6    8    1
 -0.0004012573577124945    7    6    8    2
 -0.002643080505075707    7    6    8    4
 1.386909826621516e-13    7    6    9    1
 -0.00380552369603672    7    6    9    2
 -0.02506696836648463    7    6    9    4
 -1.064689167855585e-15    7    6    9    6
 1.148386941096646e-15    7    6    9    7
 -0.0007175627239242717    7    6   10    8
 -0.006805362934286804    7    6   10    9
 0.6166994468214757    7    7    1    1
 4.738986709561938e-15    7    7    2    1
 0.616662033419012    7    7    2    2
 -0.007019902726440479    7    7    3    1
 -2.566900685063711e-13    7    7    3    2
 0.4950654905505736    7    7    3    3
 1.849335029731336e-13    7    7    4    1
 -0.005056880397400982    7    7    4    2
 3.261280134836397e-15    7    7    4    3
 0.4886072570046741    7    7    4    4
 0.4660460816108402    7    7    5    5
 0.46604608161084    7    7    6    6
 -3.231496966901314e-05    7    7    7    1
 -1.683115452566497e-15    7    7    7    2
 0.02307176872511027    7    7    7    3
 -3.080868893334809e-15    7    7    7    4
 0.5226948409323555    7    7    7    7
 2.765311851032903e-15    7    7    8    5
 0.4818278135278175    7    7    8    8
 2.80331313717852e-15    7    7    9    6
 0.4818278135278173    7    7    9    9
 -2.678964634763442e-13    7    7   10    1
 0.007350051971904134    7    7   10    2
 0.01671156119306116    7    7   10    4
 -2.220446049250313e-15    7    7   10    7
 0.5416164737538328    7    7   10   10
 -8.16980086148578e-13    8    1    5    1
 0.01088415788086532    8    1    5    2
 -6.59321555684933e-13    8    1    5    3
 0.01266088117252276    8    1    5    4
 -8.614291520483611e-14    8    1    6    1
 0.001147634013355385    8    1    6    2
 -6.951809462286962e-14    8    1    6    3
 0.001334973089482854    8    1    6    4
 1.386899655873402e-13    8    1    7    5
 1.462409837324485e-14    8    1    7    6
 0.01331476230330026    8    1    8    1
 -2.340337803110118e-14    8    1    8    2
 0.01336823220995446    8    1    8    3
 -6.346856634004139e-13    8    1    8    4
 -0.006625748274016633    8    1    8    7
 -0.009075865755959336    8    1   10    5
 -0.0009569662950679508    8    1   10    6
 4.23068034056083e-13    8    1   10    8
 0.01146396464826367    8    2    5    1
 8.167933899226078e-13    8    2    5    2
 0.0180302290833632    8    2    5    3
 4.629996473021203e-13    8    2    5    4
 0.001208769286724562    8    2    6    1
 8.612309219865064e-14    8    2    6    2
 0.001901121280226415    8    2    6    3
 4.881850674577637e-14    8    2    6    4
 -0.003805523696036722    8    2    7    5
 -0.0004012573577124945    8    2    7    6
 -2.34033551612116e-14    8    2    8    1
 0.01397091242057995    8    2    8    2
 4.889279085762421e-13    8    2    8    3
 0.01738723891857175    8    2    8    4
 -2.431080510512107e-13    8    2    8    7
 -3.316675513604424e-13    8    2   10    5
 -3.497159159482344e-14    8    2   10    6
 -0.01158560873904534    8    2   10    8
 -4.13402688478697e-13    8    3    5    1
 0.01130065078947138    8    3    5    2
 -1.811484989788781e-15    8    3    5    3
 0.0412502016504346    8    3    5    4
 -4.358800862802115e-14    8    3    6    1
 0.001191549347317779    8    3    6    2
 0.004349453121681795    8    3    6    4
 0.01336823220995446    8    3    8    1
 4.889341495149975e-13    8    3    8    2
 0.04355860340976492    8    3    8    3
 1.385610376436475e-15    8    3    8    4
 -0.0206003122354268    8    3    8    7
 -0.02953141221395771    8    3   10    5
 -0.003113814912473695    8    3   10    6
 0.01468067184526723    8    4    5    1
 5.366339832354669e-13    8    4    5    2
 0.06794441255639487    8    4    5    3
 0.001547941378005624    8    4    6    1
 5.65828698321667e-14    8    4    6    2