 &FCI NORB=   6,NELEC= 4,MS2=0,
  ORBSYM=1,1,1,1,1,1,
  ISYM=1,
 &END
 1.645404429183039    1    1    1    1
 -0.1627842605770161    1    1    2    1
 0.4683749425243608    1    1    2    2
 -0.1258894289569104    1    1    3    1
 0.001949914409067059    1    1    3    2
 0.394092442403647    1    1    3    3
 0.3960890288145399    1    1    4    4
 0.3960890288145398    1    1    5    5
 -0.06905424112182988    1    1    6    1
 0.08876830572142411    1    1    6    2
 0.02106820106994458    1    1    6    3
 0.3837758525154802    1    1    6    6
 -0.1627842605770161    2    1    1    1
 0.03169328470355462    2    1    2    1
 0.01485793918535295    2    1    2    2
 0.01365812939291459    2    1    3    1
 -0.006541618948213405    2    1    3    2
 -0.01630231729281835    2    1    3    3
 -0.006004206403989932    2    1    4    4
 -0.006004206403989932    2    1    5    5
 0.01098744529233973    2    1    6    1
 0.01254777480302601    2    1    6    2
 -0.0109710518523777    2    1    6    3
 0.01486416458156855    2    1    6    6
 0.4683749425243608    2    2    1    1
 0.01485793918535295    2    2    2    1
 0.5242631611688513    2    2    2    2
 -0.0257063055202848    2    2    3    1
 -0.03881179527144678    2    2    3    2
 0.2466468800626158    2    2    3    3
 0.3004990774063713    2    2    4    4
 0.3004990774063712    2    2    5    5
 0.005423889656868708    2    2    6    1
 0.1599353739999533    2    2    6    2
 -0.0485782844193438    2    2    6    3
 0.4593909484883231    2    2    6    6
 -0.1258894289569103    3    1    1    1
 0.0136581293929146    3    1    2    1
 -0.0257063055202848    3    1    2    2
 0.0194591134405676    3    1    3    1
 0.0006203135395084179    3    1    3    2
 0.003257871389106148    3    1    3    3
 -0.004381943704600492    3    1    4    4
 -0.004381943704600491    3    1    5    5
 0.009185266308128879    3    1    6    1
 -0.01296156117628745    3    1    6    2
 0.005167776729461986    3    1    6    3
 -0.01612309690545102    3    1    6    6
 0.001949914409066976    3    2    1    1
 -0.006541618948213413    3    2    2    1
 -0.03881179527144674    3    2    2    2
 0.0006203135395084151    3    2    3    1
 0.009465912796838465    3    2    3    2
 -0.00138941182831897    3    2    3    3
 0.0008151105814250554    3    2    4    4
 0.0008151105814250552    3    2    5    5
 -0.004112860246997484    3    2    6    1
 -0.02894836921931634    3    2    6    2
 0.004836763903877589    3    2    6    3
 -0.03613192962620981    3    2    6    6
 0.394092442403647    3    3    1    1
 -0.01630231729281837    3    3    2    1
 0.2466468800626158    3    3    2    2
 0.003257871389106136    3    3    3    1
 -0.001389411828318989    3    3    3    2
 0.3390040098132386    3    3    3    3
 0.2827504940927511    3    3    4    4
 0.282750494092751    3    3    5    5
 -0.0003219668203120834    3    3    6    1
 0.01538590589001636    3    3    6    2
 0.03633310437446195    3    3    6    3
 0.2442613486347287    3    3    6    6
 0.009890824672334668    4    1    4    1
 0.008311547637045074    4    1    4    2
 0.0102495611326894    4    1    4    3
 -0.003633875940575066    4    1    6    4
 0.008311547637045072    4    2    4    1
 0.02718210682953332    4    2    4    2
 0.01955815489274913    4    2    4    3
 -0.01612660397506721    4    2    6    4
 0.0102495611326894    4    3    4    1
 0.01955815489274913    4    3    4    2
 0.04236237488187643    4    3    4    3
 -0.01219953602062554    4    3    6    4
 0.3960890288145398    4    4    1    1
 -0.006004206403989928    4    4    2    1
 0.3004990774063713    4    4    2    2
 -0.004381943704600464    4    4    3    1
 0.00081511058142506    4    4    3    2
 0.2827504940927511    4    4    3    3
 0.3129455111594095    4    4    4    4
 0.2792072321320274    4    4    5    5
 -0.003274609851796512    4    4    6    1
 0.02294336686043114    4    4    6    2
 -0.0004067264693790821    4    4    6    3
 0.2724727424254968    4    4    6    6
 0.009890824672334667    5    1    5    1
 0.008311547637045072    5    1    5    2
 0.0102495611326894    5    1    5    3
 -0.003633875940575064    5    1    6    5
 0.00831154763704507    5    2    5    1
 0.02718210682953331    5    2    5    2
 0.01955815489274912    5    2    5    3
 -0.01612660397506721    5    2    6    5
 0.0102495611326894    5    3    5    1
 0.01955815489274913    5    3    5    2
 0.04236237488187642    5    3    5    3
 -0.01219953602062554    5    3    6    5
 0.01686913951369102    5    4    5    4
 0.3960890288145398    5    5    1    1
 -0.006004206403989939    5    5    2    1
 0.3004990774063712    5    5    2    2
 -0.004381943704600493    5    5    3    1
 0.0008151105814250652    5    5    3    2
 0.282750494092751    5    5    3    3
 0.2792072321320274    5    5    4    4
 0.3129455111594093    5    5    5    5
 -0.003274609851796483    5    5    6    1
 0.02294336686043115    5    5    6    2
 -0.0004067264693790491    5    5    6    3
 0.2724727424254969    5    5    6    6
 -0.06905424112182994    6    1    1    1
 0.01098744529233976    6    1    2    1
 0.005423889656868724    6    1    2    2
 0.009185266308128897    6    1    3    1
 -0.004112860246997497    6    1    3    2
 -0.0003219668203120504    6    1    3    3
 -0.00327460985179649    6    1    4    4
 -0.00327460985179649    6    1    5    5
 0.007097740027784205    6    1    6    1
 0.008411463621391498    6    1    6    2
 -0.001586795104089311    6    1    6    3
 0.01007660351227915    6    1    6    6
 0.08876830572142426    6    2    1    1
 0.01254777480302602    6    2    2    1
 0.1599353739999533    6    2    2    2
 -0.01296156117628743    6    2    3    1
 -0.02894836921931636    6    2    3    2
 0.01538590589001635    6    2    3    3
 0.02294336686043113    6    2    4    4
 0.02294336686043113    6    2    5    5
 0.008411463621391498    6    2    6    1
 0.1224156455191303    6    2    6    2
 -0.02898790213558007    6    2    6    3
 0.1557201228069714    6    2    6    6
 0.02106820106994452    6    3    1    1
 -0.0109710518523777    6    3    2    1
 -0.04857828441934375    6    3    2    2
 0.005167776729461998    6    3    3    1
 0.00483676390387758    6    3    3    2
 0.03633310437446195    6    3    3    3
 -0.0004067264693791102    6    3    4    4
 -0.0004067264693791101    6    3    5    5
 -0.001586795104089284    6    3    6    1
 -0.02898790213558006    6    3    6    2
 0.02693212326806281    6    3    6    3
 -0.03986336550238617    6    3    6    6
 -0.003633875940575066    6    4    4    1
 -0.01612660397506721    6    4    4    2
 -0.01219953602062554    6    4    4    3
 0.01533194573934405    6    4    6    4
 -0.003633875940575065    6    5    5    1
 -0.01612660397506721    6    5    5    2
 -0.01219953602062554    6    5    5    3
 0.01533194573934404    6    5    6    5
 0.3837758525154802    6    6    1    1
 0.01486416458156856    6    6    2    1
 0.4593909484883232    6    6    2    2
 -0.016123096905451    6    6    3    1
 -0.03613192962620986    6    6    3    2
 0.2442613486347288    6    6    3    3
 0.2724727424254969    6    6    4    4
 0.2724727424254968    6    6    5    5
 0.0100766035122791    6    6    6    1
 0.1557201228069714    6    6    6    2
 -0.03986336550238615    6    6    6    3
 0.4397587616430319    6    6    6    6
 -4.92136041654029    1    1  0  0
 0.1479263190288492    2    1  0  0
 -1.745976863235104    2    2  0  0
 0.1707604239410579    3    1  0  0
 0.04857005588861667    3    2  0  0
 -1.175705192972383    3    3  0  0
 -1.198164548156132    4    4  0  0
 -1.198164548156131    5    5  0  0
 0.07075423762109885    6    1  0  0
 -0.3264845361074953    6    2  0  0
 0.03525707086813851    6    3  0  0
 -0.9438209669711981    6    6  0  0
 1.58753163276  0  0  0  0
