 &FCI NORB=  15,NELEC=14,MS2=0,
  ORBSYM=1,1,1,1,1,1,1,1,1,1,1,1,1,1,1,
  ISYM=1,
 &END
 4.74200064034005    1    1    1    1
 -0.1265934327630102    1    1    2    1
 0.5819592043254314    1    1    2    2
 -3.239148857990537e-15    1    1    3    1
 1.001111628491647e-15    1    1    3    2
 0.5472497874020612    1    1    3    3
 -0.4578853312035779    1    1    4    1
 0.1709017638084292    1    1    4    2
 4.172443640593215e-15    1    1    4    3
 1.062668482406998    1    1    4    4
 0.9038203089766741    1    1    5    5
 -0.01547897821898534    1    1    6    1
 0.06865335624114177    1    1    6    2
 2.497568124537608e-15    1    1    6    3
 0.01556377003675073    1    1    6    4
 0.9019550999012111    1    1    6    6
 -3.139632651083524e-15    1    1    7    2
 0.1213358250279399    1    1    7    3
 0.9515863616494451    1    1    7    7
 0.0453514912967739    1    1    8    1
 -0.04468519614854734    1    1    8    2
 -0.03989546346752967    1    1    8    4
 -0.04060321621532473    1    1    8    6
 0.2670533956225419    1    1    8    8
 1.360414957903922e-15    1    1    9    1
 -0.02870405112402578    1    1    9    3
 -1.386674249818226e-15    1    1    9    4
 -1.726158278814172e-15    1    1    9    6
 0.007274248041778002    1    1    9    7
 0.2524885561881636    1    1    9    9
 -5.48172618408671e-15    1    1   10    5
 0.3057039803347771    1    1   10   10
 0.3836303479263568    1    1   11    5
 -4.360557813029048e-15    1    1   11    6
 -3.469446951953614e-15    1    1   11   10
 0.5509350924949062    1    1   11   11
 0.02969381594369481    1    1   12    1
 0.0295728161248941    1    1   12    2
 1.251169307048272e-15    1    1   12    3
 -0.03654684215699464    1    1   12    4
 4.547845101745416e-15    1    1   12    5
 0.3807459287399699    1    1   12    6
 -0.03641248695074825    1    1   12    8
 -1.194357113210032e-15    1    1   12    9
 0.5483257966158523    1    1   12   12
 -4.082671700711415e-15    1    1   13    1
 2.758644007672117e-15    1    1   13    2
 -0.04693226005762551    1    1   13    3
 5.332106284283711e-15    1    1   13    4
 3.948230631323213e-15    1    1   13    6
 -0.275138458818423    1    1   13    7
 -1.533495552763497e-15    1    1   13    8
 0.01968314278313695    1    1   13    9
 1.637578961322106e-15    1    1   13   12
 0.4183007657640402    1    1   13   13
 -0.2280762402396406    1    1   14    1
 0.05863735310217206    1    1   14    2
 2.34225616332906e-15    1    1   14    3
 0.2618786348977959    1    1   14    4
 0.01364592178138168    1    1   14    6
 7.327471962526033e-15    1    1   14    7
 -0.0641889719133768    1    1   14    8
 -1.769851626365337e-15    1    1   14    9
 -0.01864236500515382    1    1   14   12
 0.4423487969278908    1    1   14   14
 0.02336700750484113    1    1   15    3
 -1.120197684612023e-15    1    1   15    4
 3.668289630387456e-15    1    1   15    6
 0.2721452647961206    1    1   15    7
 -0.01436522534471835    1    1   15    9
 3.408731630294426e-15    1    1   15   12
 -0.1234095005292689    1    1   15   13
 3.327199626923516e-15    1    1   15   14
 0.4664627372400894    1    1   15   15
 -0.1265934327630101    2    1    1    1
 0.005469480178466248    2    1    2    1
 0.0002738690890959973    2    1    2    2
 0.0004090692391779711    2    1    3    3
 0.01921157792889616    2    1    4    1
 -0.001070578001072484    2    1    4    2
 -0.005498386116381904    2    1    4    4
 -0.002543433176304533    2    1    5    5
 0.002687770519855037    2    1    6    1
 0.0006269041283825116    2    1    6    2
 0.002795031285357246    2    1    6    4
 -0.002414831858573917    2    1    6    6
 -0.0003716508192073578    2    1    7    3
 -0.002944658261113291    2    1    7    7
 -0.002111022425014497    2    1    8    1
 7.618817992227747e-05    2    1    8    2
 0.0003076132837866605    2    1    8    4
 0.0001956275795845138    2    1    8    6
 0.0001975583460094166    2    1    8    8
 -3.159834024826386e-05    2    1    9    3
 -2.543991248885613e-05    2    1    9    7
 8.577705393663373e-05    2    1    9    9
 0.0001814512096899017    2    1   10   10
 -0.002205489413464676    2    1   11    5
 -0.001588129498839499    2    1   11   11
 0.0003339721946523167    2    1   12    1
 0.000341429565430887    2    1   12    2
 0.002210182816234033    2    1   12    4
 -0.002266528170921588    2    1   12    6
 -0.0001071240876167634    2    1   12    8
 -0.001857673228113118    2    1   12   12
 8.272003170381918e-05    2    1   13    3
 0.001368143352682951    2    1   13    7
 -0.0001641756322884375    2    1   13    9
 -0.000513152882930338    2    1   13   13
 0.009650707598590333    2    1   14    1
 -0.000677125351849827    2    1   14    2
 -0.002717133251019892    2    1   14    4
 0.0006679493108548321    2    1   14    6
 0.0001333936457438277    2    1   14    8
 0.001043425794682509    2    1   14   12
 -0.001324820711209593    2    1   14   14
 -0.0003994578676511374    2    1   15    3
 -0.001850511898840587    2    1   15    7
 9.671751820566595e-05    2    1   15    9
 0.001120794158007399    2    1   15   13
 -0.001083589774555595    2    1   15   15
 0.5819592043254314    2    2    1    1
 0.0002738690890960052    2    2    2    1
 0.8967063571858315    2    2    2    2
 -3.060944645536315e-14    2    2    3    2
 0.9189802533443999    2    2    3    3
 -0.001301416662888159    2    2    4    1
 -0.1207501796606246    2    2    4    2
 6.269073801745684e-15    2    2    4    3
 0.5818797334124295    2    2    4    4
 0.4752779647058022    2    2    5    5
 0.008457072208685157    2    2    6    1
 -0.03312533630513623    2    2    6    2
 2.988494868239044e-15    2    2    6    3
 0.09441834554716801    2    2    6    4
 0.5001383413126813    2    2    6    6
 6.899537365046005e-15    2    2    7    2
 -0.08324109218156583    2    2    7    3
 -8.661040634683204e-15    2    2    7    4
 -1.013078509970455e-15    2    2    7    6
 0.5488008578619074    2    2    7    7
 -0.0004582935528008658    2    2    8    1
 -0.06551731705995102    2    2    8    2
 1.73450663554231e-15    2    2    8    3
 0.01407875611793308    2    2    8    4
 0.01096850897859099    2    2    8    6
 0.3021865698021594    2    2    8    8
 4.667842718256154e-15    2    2    9    2
 -0.07345696781299454    2    2    9    3
 -1.78687360047336e-15    2    2    9    4
 0.0171553548808673    2    2    9    7
 -4.076600168545497e-15    2    2    9    8
 0.2893829239879745    2    2    9    9
 1.77635683940025e-15    2    2   10    5
 0.3313994202291072    2    2   10   10
 0.08418618639035949    2    2   11    5
 -1.066540877724703e-15    2    2   11    6
 -3.33066907387547e-15    2    2   11   10
 0.3470651168459064    2    2   11   11
 0.006566670796294019    2    2   12    1
 -0.0269614671175866    2    2   12    2
 0.03875780316854729    2    2   12    4
 1.046552613239921e-15    2    2   12    5
 0.09412740987546106    2    2   12    6
 -1.637578961322106e-15    2    2   12    7
 -0.01951626603333795    2    2   12    8
 -2.367897544708342e-15    2    2   12    9
 0.353710604990105    2    2   12   12
 -3.63879933129585e-15    2    2   13    2
 0.03763716780017711    2    2   13    3
 4.603956105242446e-15    2    2   13    4
 3.864963904476326e-15    2    2   13    6
 -0.09003993760482848    2    2   13    7
 -0.009535249052123895    2    2   13    9
 -2.060851489460447e-15    2    2   13   12
 0.365160907288296    2    2   13   13
 -0.00137169166208026    2    2   14    1
 -0.01043251983930354    2    2   14    2
 -1.021101606046848e-15    2    2   14    3
 0.0502041841851202    2    2   14    4
 -0.006949302213657414    2    2   14    6
 2.395653120323971e-15    2    2   14    7
 -0.02289384298345171    2    2   14    8
 -1.256373477476203e-15    2    2   14    9
 0.02249344249697156    2    2   14   12
 0.3237207832471071    2    2   14   14
 3.309852392163748e-15    2    2   15    2
 -0.05624595471486264    2    2   15    3
 2.105737459401347e-15    2    2   15    6
 0.07059009581927099    2    2   15    7
 -1.321859288694327e-15    2    2   15    8
 0.03078485658730366    2    2   15    9
 -1.360023205165817e-15    2    2   15   12
 -0.0001182709521662245    2    2   15   13
 -2.75474087985117e-15    2    2   15   14
 0.392769616892628    2    2   15   15
 -3.242630533980667e-15    3    1    1    1
 0.0006046214869041113    3    1    3    1
 0.002423767898200946    3    1    3    2
 0.000739992203263617    3    1    4    3
 1.646360745114552e-05    3    1    6    3
 0.003462964649933203    3    1    7    1
 0.001598284086546795    3    1    7    2
 0.005049042514737241    3    1    7    4
 -0.0001692363811248434    3    1    7    6
 -0.0003035153409299623    3    1    8    3
 -0.000497868806874702    3    1    8    7
 -0.000146586829411022    3    1    9    1
 -0.0002039980217427123    3    1    9    2
 -2.099749012119127e-05    3    1    9    4
 -0.0002498194728384156    3    1    9    6
 0.0004716260298647924    3    1    9    8
 -0.0006814291766026523    3    1   10    5
 0.0002807939299832366    3    1   11   10
 8.664082894381517e-05    3    1   12    3
 5.878625079036043e-05    3    1   12    7
 0.0002488549450335766    3    1   12    9
 -0.001800595742227143    3    1   13    1
 -0.0005823373073250001    3    1   13    2
 -0.002099170108896088    3    1   13    4
 -0.000525852179656763    3    1   13    6
 0.000179334543162993    3    1   13    8
 0.0004065170040681062    3    1   13   12
 0.0002874639739517751    3    1   14    3
 0.001671046909993309    3    1   14    7
 -2.915805505767486e-05    3    1   14    9
 -0.0009473576491298962    3    1   14   13
 0.002261544065337025    3    1   15    1
 0.0004230975097118193    3    1   15    2
 0.001905906161192585    3    1   15    4
 -0.0001720127207398504    3    1   15    6
 -0.0001945992218676582    3    1   15    8
 -0.0001250816478451782    3    1   15   12
 0.001410572443191082    3    1   15   14
 1.023391771377987e-15    3    2    1    1
 -3.052029793173053e-14    3    2    2    2
 0.002423767898200946    3    2    3    1
 0.5965585843871719    3    2    3    2
 2.941595670389111e-14    3    2    3    3
 5.14018894722662e-15    3    2    4    2
 -0.1824083126633301    3    2    4    3
 1.768645451448447e-15    3    2    6    2
 -0.0819614718900339    3    2    6    3
 1.196200256903257e-15    3    2    6    4
 1.009609063018502e-15    3    2    6    6
 0.01421099253858319    3    2    7    1
 -0.09723991533855464    3    2    7    2
 -2.048925265563106e-15    3    2    7    3
 0.1601506914884235    3    2    7    4
 0.02518632975591189    3    2    7    6
 1.837709129835774e-15    3    2    8    2
 -0.05861854676490354    3    2    8    3
 -0.005655720556154154    3    2    8    7
 -1.163132090642449e-15    3    2    8    8
 -0.0003670941604991015    3    2    9    1
 -0.06254230316473339    3    2    9    2
 -1.647689146580533e-15    3    2    9    3
 0.02708783906955047    3    2    9    4
 -0.006974648532844557    3    2    9    6
 0.08567524816566197    3    2    9    8
 -0.05817736004857341    3    2   10    5
 -2.081668171172169e-15    3    2   10   10
 0.0639603673917403    3    2   11   10
 2.175343238874916e-15    3    2   11   11
 -0.03942125032795003    3    2   12    3
 1.134509153288832e-15    3    2   12    6
 0.04230310827660625    3    2   12    7
 0.04064373484219069    3    2   12    9
 -0.006981530945889561    3    2   13    1
 0.04685521689746053    3    2   13    2
 -0.05884654396917652    3    2   13    4
 -0.06604157374009426    3    2   13    6
 -0.02735825120475529    3    2   13    8
 0.05035590506681167    3    2   13   12
 -1.066658426081973e-15    3    2   14    2
 -0.0143649585115401    3    2   14    3
 1.330099225205217e-15    3    2   14    4
 -0.0009821674582497887    3    2   14    7
 0.02642643361068297    3    2   14    9
 -0.01040156616790309    3    2   14   13
 1.873501354054952e-15    3    2   14   14
 0.007969741909696649    3    2   15    1
 -0.05067813479664117    3    2   15    2
 -2.213507155346406e-15    3    2   15    3
 0.02818901002937602    3    2   15    4
 -0.01321149347473425    3    2   15    6
 1.332267629550188e-15    3    2   15    7
 0.02411771525783381    3    2   15    8
 0.03140737767770661    3    2   15   12
 0.07744344711532308    3    2   15   14
 -6.00908212078366e-15    3    2   15   15
 0.547249787402061    3    3    1    1
 0.0004090692391779691    3    3    2    1
 0.9189802533443996    3    3    2    2
 2.952120562978514e-14    3    3    3    2
 0.9451560984208778    3    3    3    3
 -0.0001156995313418662    3    3    4    1
 -0.1373531528711288    3    3    4    2
 -1.248285329269461e-14    3    3    4    3
 0.569839354415279    3    3    4    4
 0.460185883481553    3    3    5    5
 0.007073450121119509    3    3    6    1
 -0.04299133729569585    3    3    6    2
 -5.651729084732438e-15    3    3    6    3
 0.09012321393547708    3    3    6    4
 0.484860219679758    3    3    6    6
 -2.602735735268702e-15    3    3    7    2
 -0.09440948621677146    3    3    7    3
 7.47579081972205e-15    3    3    7    4
 1.540434446667405e-15    3    3    7    6
 0.5407321130612498    3    3    7    7
 -0.0004336550885932359    3    3    8    1
 -0.06790608225278057    3    3    8    2
 -4.234460004859386e-15    3    3    8    3
 0.01641692001180611    3    3    8    4
 0.01238605838977685    3    3    8    6
 0.3030131790611365    3    3    8    8
 -1.54393099867367e-15    3    3    9    2
 -0.07667068901740158    3    3    9    3
 1.019421092679496e-15    3    3    9    4
 0.01815461263829889    3    3    9    7
 4.447830992404533e-15    3    3    9    8
 0.2917624529792979    3    3    9    9
 -3.934352843515398e-15    3    3   10    5
 0.3322487523714453    3    3   10   10
 0.07568989674420154    3    3   11    5
 3.164135620181696e-15    3    3   11   10
 0.3409688134546239    3    3   11   11
 0.00543749273505817    3    3   12    1
 -0.03108042216590975    3    3   12    2
 -3.356256245146128e-15    3    3   12    3
 0.03740799542167464    3    3   12    4
 0.08572623819882824    3    3   12    6
 2.636779683484746e-15    3    3   12    7
 -0.01733715559710461    3    3   12    8
 1.753805434212552e-15    3    3   12    9
 0.3487668519403398    3    3   12   12
 0.0435740490589335    3    3   13    3
 -1.499234764112956e-15    3    3   13    4
 -2.890049310977361e-15    3    3   13    6
 -0.08564084611163916    3    3   13    7
 -1.804112415015879e-15    3    3   13    8
 -0.009970168836244837    3    3   13    9
 2.838007606698056e-15    3    3   13   12
 0.3644487176884118    3    3   13   13
 -0.0008129386747074757    3    3   14    1
 -0.01207759275833404    3    3   14    2
 -2.651633253247798e-15    3    3   14    3
 0.04564183380431538    3    3   14    4
 -0.008404951893512688    3    3   14    6
 2.286365541337432e-15    3    3   14    7
 -0.02009499692154126    3    3   14    8
 1.587705661387773e-15    3    3   14    9
 0.02183278528297805    3    3   14   12
 -1.165734175856414e-15    3    3   14   13
 0.3200577235003678    3    3   14   14
 -1.769417945496343e-15    3    3   15    2
 -0.05893467102477268    3    3   15    3
 1.56472057533108e-15    3    3   15    4
 0.06678178360927504    3    3   15    7
 1.290634266126744e-15    3    3   15    8
 0.03371356299720018    3    3   15    9
 1.831867990631508e-15    3    3   15   12
 0.001894988761614872    3    3   15   13
 3.975986206938842e-15    3    3   15   14
 0.393307100564364    3    3   15   15
 -0.4578853312035778    4    1    1    1
 0.01921157792889617    4    1    2    1
 -0.001301416662888193    4    1    2    2
 -0.0001156995313418724    4    1    3    3
 0.07007316216323767    4    1    4    1
 -0.005253380102980407    4    1    4    2
 -0.01916589120731247    4    1    4    4
 -0.008332740880086847    4    1    5    5
 0.00298133244413296    4    1    6    1
 -0.001018660030234413    4    1    6    2
 -0.0001562191260190131    4    1    6    4
 -0.008618174659892936    4    1    6    6
 -0.001863675337981619    4    1    7    3
 -0.009810193157509067    4    1    7    7
 -0.007014791624977617    4    1    8    1
 0.000596913599379557    4    1    8    2
 0.001896305116195214    4    1    8    4
 0.0009296405943178413    4    1    8    6
 -0.0002127985780707656    4    1    8    8
 4.977366091261373e-05    4    1    9    3
 0.0003883085564318479    4    1    9    7
 8.980665123034988e-06    4    1    9    9
 3.47954837476376e-05    4    1   10   10
 -0.006659551300141484    4    1   11    5
 -0.00525288359763149    4    1   11   11
 -0.004099184575334691    4    1   12    1
 -0.0003505828196438943    4    1   12    2
 0.001536677907842247    4    1   12    4
 -0.006636300997035634    4    1   12    6
 0.0004925540124045853    4    1   12    8
 -0.005230790461081583    4    1   12   12
 0.0009022234724590513    4    1   13    3
 0.004967228856164566    4    1   13    7
 -0.0002406728785550784    4    1   13    9
 -0.00250401128019906    4    1   13   13
 0.03500193075674605    4    1   14    1
 -0.00261941235382821    4    1   14    2
 -0.009620797087947584    4    1   14    4
 -0.0004494069324172112    4    1   14    6
 0.0009570455486348873    4    1   14    8
 0.000583774889315964    4    1   14   12
 -0.004826541281594679    4    1   14   14
 -0.001106041489243318    4    1   15    3
 -0.006131907727368218    4    1   15    7
 0.0002610707290325418    4    1   15    9
 0.003184872520659838    4    1   15   13
 -0.003893210724486406    4    1   15   15
 0.1709017638084294    4    2    1    1
 -0.001070578001072481    4    2    2    1
 -0.1207501796606247    4    2    2    2
 5.18738562304763e-15    4    2    3    2
 -0.1373531528711288    4    2    3    3
 -0.005253380102980407    4    2    4    1
 0.08051504964458239    4    2    4    2
 0.05929274421389455    4    2    4    4
 0.07300794328394228    4    2    5    5
 0.00167472427450157    4    2    6    1
 0.03611494508454581    4    2    6    2
 -0.008079901942696829    4    2    6    4
 0.06438281158844494    4    2    6    6
 -2.900051076018539e-15    4    2    7    2
 0.06035500006885923    4    2    7    3
 0.05425454520976226    4    2    7    7
 0.0002869846647750635    4    2    8    1
 0.01179302702919058    4    2    8    2
 -0.01077160986400085    4    2    8    4
 -0.009477688591409423    4    2    8    6
 -0.01029130632214851    4    2    8    8
 -1.044455998468544e-15    4    2    9    2
 0.01728737134162501    4    2    9    3
 -0.002426929164153496    4    2    9    7
 -0.01232792581575901    4    2    9    9
 -0.006122608153405231    4    2   10   10
 0.04413965013340175    4    2   11    5
 0.02837025271393616    4    2   11   11
 0.001730903286215263    4    2   12    1
 0.0189438453268975    4    2   12    2
 -0.007382751355147893    4    2   12    4
 0.04034339887665225    4    2   12    6
 -0.004559026667904979    4    2   12    8
 0.0239328090458019    4    2   12   12
 1.591293692952342e-15    4    2   13    2
 -0.02546107955477872    4    2   13    3
 -0.02398811999734357    4    2   13    7
 0.007075901963247979    4    2   13    9
 0.001434198434295666    4    2   13   13
 -0.00253571320545718    4    2   14    1
 0.009515232907119911    4    2   14    2
 0.02338637446504459    4    2   14    4
 0.006180987560656164    4    2   14    6
 -0.01126681988547297    4    2   14    8
 -0.005587145222870351    4    2   14   12
 0.01665984292693013    4    2   14   14
 0.01839468418819351    4    2   15    3
 0.02284298405737221    4    2   15    7
 -0.01464648591597012    4    2   15    9
 -0.01631868540965569    4    2   15   13
 -0.00201774536883325    4    2   15   15
 4.188423102431625e-15    4    3    1    1
 6.334378347913096e-15    4    3    2    2
 0.0007399922032636166    4    3    3    1
 -0.1824083126633301    4    3    3    2
 -1.245085577607913e-14    4    3    3    3
 0.07165198376106777    4    3    4    3
 1.437523331707796e-15    4    3    4    4
 1.764213775068413e-15    4    3    5    5
 0.0306664639377722    4    3    6    3
 1.388104041433191e-15    4    3    6    6
 0.002829841615482464    4    3    7    1
 0.05045411926137747    4    3    7    2
 2.671447047949971e-15    4    3    7    3
 -0.01843950761212022    4    3    7    4
 -0.01080875386646586    4    3    7    6
 1.381273567746533e-15    4    3    7    7
 0.01801760657710645    4    3    8    3
 -0.001750120837835892    4    3    8    7
 -0.0001872852073639082    4    3    9    1
 0.02048532147352048    4    3    9    2
 -0.009044354166710336    4    3    9    4
 -0.001056471561797603    4    3    9    6
 -0.02340804063879217    4    3    9    8
 0.01069262984701241    4    3   10    5
 1.243796732275371e-15    4    3   11    5
 -0.01674055321631453    4    3   11   10
 0.01600480877682001    4    3   12    3
 -0.01117620681463442    4    3   12    7
 -0.01040859723104771    4    3   12    9
 -0.001453020466879899    4    3   13    1
 -0.02164215578561219    4    3   13    2
 0.006794080000661629    4    3   13    4
 0.01530325495515268    4    3   13    6
 0.01038443233273437    4    3   13    8
 -0.0118304419518018    4    3   13   12
 0.00522064150157893    4    3   14    3
 0.007702282426968418    4    3   14    7
 -0.009609636476164267    4    3   14    9
 -0.001749410472353698    4    3   14   13
 0.001790785332360808    4    3   15    1
 0.01866379496984288    4    3   15    2
 1.240327285323417e-15    4    3   15    3
 -0.0007561110971364476    4    3   15    4
 0.002386495887636    4    3   15    6
 -0.01041572815171423    4    3   15    8
 -0.01124429640469452    4    3   15   12
 -0.01539690909848413    4    3   15   14
 2.026157019940911e-15    4    3   15   15
 1.062668482406999    4    4    1    1
 -0.005498386116381904    4    4    2    1
 0.5818797334124294    4    4    2    2
 0.569839354415279    4    4    3    3
 -0.01916589120731243    4    4    4    1
 0.05929274421389459    4    4    4    2
 1.432881591156843e-15    4    4    4    3
 0.7421460239530679    4    4    4    4
 0.6642747021899041    4    4    5    5
 -9.086550452970629e-05    4    4    6    1
 0.02618077617911304    4    4    6    2
 1.078998002057574e-15    4    4    6    3
 0.009120780206991516    4    4    6    4
 0.6597864187863621    4    4    6    6
 -1.350699066482441e-15    4    4    7    2
 0.04868836034840519    4    4    7    3
 0.6853463650007249    4    4    7    7
 0.001994911385323617    4    4    8    1
 -0.03622161398074562    4    4    8    2
 -0.007819832703708462    4    4    8    4
 -0.01582440794979585    4    4    8    6
 0.2644175998973143    4    4    8    8
 -0.03103238008375854    4    4    9    3
 0.01689595071746144    4    4    9    7
 0.2549447677691314    4    4    9    9
 -2.92821322744885e-15    4    4   10    5
 0.3045695074057774    4    4   10   10
 0.2094398038874533    4    4   11    5
 -2.394906089168989e-15    4    4   11    6
 -1.471045507628332e-15    4    4   11   10
 0.4194558236495305    4    4   11   11
 0.001757030402014466    4    4   12    1
 0.008443138318079597    4    4   12    2
 -0.01556244356072324    4    4   12    4
 2.506207688972174e-15    4    4   12    5
 0.2092626674680909    4    4   12    6
 -0.02107430656650525    4    4   12    8
 0.4203048996104907    4    4   12   12
 -0.01430441138431694    4    4   13    3
 2.342744054306678e-15    4    4   13    4
 2.095545958979983e-15    4    4   13    6
 -0.1494359591908905    4    4   13    7
 -1.07552855510562e-15    4    4   13    8
 0.01225081240153488    4    4   13    9
 0.3576754033319497    4    4   13   13
 -0.01023255536496232    4    4   14    1
 0.01706673473441691    4    4   14    2
 0.1127033798377978    4    4   14    4
 0.003387274891502316    4    4   14    6
 4.007211229506424e-15    4    4   14    7
 -0.04579269351235651    4    4   14    8
 -0.01107210441006316    4    4   14   12
 0.3652525924985341    4    4   14   14
 -0.006292507356359668    4    4   15    3
 -1.055579235131887e-15    4    4   15    4
 2.229770187933688e-15    4    4   15    6
 0.1300858891964006    4    4   15    7
 -0.004599237883827085    4    4   15    9
 1.373900992973631e-15    4    4   15   12
 -0.05237858301748619    4    4   15   13
 0.3858926411308065    4    4   15   15
 0.01745842718748915    5    1    5    1
 0.007349196031426435    5    1    5    2
 0.02522607041517989    5    1    5    4
 0.0007295823358180154    5    1    6    5
 -0.0005713251475111937    5    1    8    5
 -0.001323781247860712    5    1   10    3
 -0.002233669241874767    5    1   10    7
 -0.001533284437324082    5    1   10    9
 0.01407301845264032    5    1   11    1
 0.003746506244572259    5    1   11    2
 0.01578995568310165    5    1   11    4
 -3.077714782858266e-05    5    1   11    6
 -0.002616323576605365    5    1   11    8
 -0.0008798571068272944    5    1   12    5
 -0.00145907508469224    5    1   12   11
 0.000661350735956627    5    1   13   10
 0.007195687583358237    5    1   14    5
 0.008194345153539119    5    1   14   11
 0.001155191256251985    5    1   15   10
 0.007349196031426434    5    2    5    1
 0.01628849976984446    5    2    5    2
 0.04105889788740405    5    2    5    4
 0.006150978353799272    5    2    6    5
 0.003551332844030268    5    2    8    5
 -0.007874587672918995    5    2   10    3
 -0.006445869011896191    5    2   10    7
 -0.009054529921897942    5    2   10    9
 0.005635394546871853    5    2   11    1
 0.002854729943366459    5    2   11    2
 0.0202120058533951    5    2   11    4
 0.001604134176813739    5    2   11    6
 -0.009855863117977669    5    2   11    8
 0.0024422520572199    5    2   12    5
 -0.0009067381140101078    5    2   12   11
 0.002501789466264713    5    2   13   10
 0.001425910038175738    5    2   14    5
 0.01397514200685629    5    2   14   11
 0.006659885373544661    5    2   15   10
 0.004905085628376037    5    3    5    3
 1.048728432654494e-15    5    3    5    4
 0.009535136868031915    5    3    7    5
 0.001718003600550253    5    3    9    5
 -8.484411434019142e-05    5    3   10    1
 -0.005129750798878749    5    3   10    2
 -0.001966835692076307    5    3   10    4
 7.661738641026326e-05    5    3   10    6
 -0.003548048396627459    5    3   10    8
 -0.0009109510815868673    5    3   11    3
 0.004248973889202165    5    3   11    7
 -0.002831876413457038    5    3   11    9
 -0.001604004676053093    5    3   12   10
 -0.003600233918570741    5    3   13    5
 -0.00156185894716964    5    3   13   11
 0.001743240768703413    5    3   14   10
 7.518040680238599e-05    5    3   15    5
 0.003085642772079167    5    3   15   11
 0.02522607041517988    5    4    5    1
 0.04105889788740405    5    4    5    2
 1.052814519592049e-15    5    4    5    3
 0.1296745125027756    5    4    5    4
 0.002520679705923797    5    4    6    5
 0.006642678312645035    5    4    8    5
 -0.01169266184054778    5    4   10    3
 -0.01816807934803351    5    4   10    7
 -0.01774611503969156    5    4   10    9
 0.019506859994184    5    4   11    1
 0.01433474298312893    5    4   11    2
 0.06709882272876161    5    4   11    4
 -0.001960058929666129    5    4   11    6
 -0.02096070734739772    5    4   11    8
 -0.001326705554177377    5    4   12    5
 -0.008627859813350916    5    4   12   11
 0.004372884482250884    5    4   13   10
 0.01113167353800181    5    4   14    5
 0.04131604786749273    5    4   14   11
 0.01594448331723499    5    4   15   10
 0.9038203089766742    5    5    1    1
 -0.002543433176304539    5    5    2    1
 0.4752779647058022    5    5    2    2
 0.4601858834815531    5    5    3    3
 -0.008332740880086887    5    5    4    1
 0.07300794328394221    5    5    4    2
 1.798040882849961e-15    5    5    4    3
 0.6642747021899041    5    5    4    4
 0.6447948890316788    5    5    5    5
 0.0004853153516325424    5    5    6    1
 0.03126279033830501    5    5    6    2
 1.212138028838794e-15    5    5    6    3
 0.009426402931730818    5    5    6    4
 0.579476933561543    5    5    6    6
 -1.460528746555223e-15    5    5    7    2
 0.05447355105986334    5    5    7    3
 0.600565395138663    5    5    7    7
 0.0009143163054032613    5    5    8    1
 -0.02303746498931863    5    5    8    2
 -0.007275194558126202    5    5    8    4
 -0.01230457763710437    5    5    8    6
 0.2562697937104311    5    5    8    8
 -0.01796024408017112    5    5    9    3
 0.01407361000395508    5    5    9    7
 0.2447737380191028    5    5    9    9
 -2.831068712794149e-15    5    5   10    5
 0.2982781463306066    5    5   10   10
 0.1961218859790952    5    5   11    5
 -1.940101458561106e-15    5    5   11    6
 -1.582067810090848e-15    5    5   11   10
 0.4110586781320316    5    5   11   11
 0.001195639841561684    5    5   12    1
 0.01164644085799184    5    5   12    2
 -0.01237446883768131    5    5   12    4
 2.350765388062491e-15    5    5   12    5
 0.1701308799954995    5    5   12    6
 -0.01947168217320022    5    5   12    8
 0.3819068347918456    5    5   12   12
 1.007549078890779e-15    5    5   13    2
 -0.01862261845735189    5    5   13    3
 2.053478914687545e-15    5    5   13    4
 1.647987302177967e-15    5    5   13    6
 -0.123171148114651    5    5   13    7
 0.009842033636969789    5    5   13    9
 0.3304712320672656    5    5   13   13
 -0.004759803548039962    5    5   14    1
 0.01437270697130794    5    5   14    2
 0.09276669476147405    5    5   14    4
 0.002412506413838228    5    5   14    6
 3.214442600985024e-15    5    5   14    7
 -0.04638190114485883    5    5   14    8
 -1.010910105625484e-15    5    5   14    9
 -0.009758138772364582    5    5   14   12
 0.3489425385516429    5    5   14   14
 -0.0008616180411201296    5    5   15    3
 1.516365158438227e-15    5    5   15    6
 0.1034120626243401    5    5   15    7
 -0.01081318587254677    5    5   15    9
 1.443289932012704e-15    5    5   15   12
 -0.04155808584820571    5    5   15   13
 1.228184220991579e-15    5    5   15   14